 *********************************************************
 *                                                       *
 *                  WELCOME TO ABACUS v3.0               *
 *                                                       *
 *            'Atomic-orbital Based Ab-initio            *
 *                  Computation at UStc'                 *
 *                                                       *
 *          Website: http://abacus.ustc.edu.cn/          *
 *                                                       *
 *********************************************************
 Wed Dec 28 12:18:12 2022
 MAKE THE DIR         : OUT.blpstest/
Notice: symbol 'al_locpsp' is not an element symbol!!!! set the covalent radius to be 0.
 UNIFORM GRID DIM     : 27 * 27 * 27
 UNIFORM GRID DIM(BIG): 27 * 27 * 27
func,idXC_GGA_X_PBE 101
func,idXC_GGA_C_PBE 130
 DONE(0.110393   SEC) : SETUP UNITCELL
 DONE(0.164202   SEC) : SYMMETRY
 DONE(0.502809   SEC) : INIT K-POINTS
 ---------------------------------------------------------
 Self-consistent calculations for electrons
 ---------------------------------------------------------
 SPIN    KPOINTS         PROCESSORS  
 1       256             1           
 ---------------------------------------------------------
 Use plane wave basis
 ---------------------------------------------------------
 ELEMENT NATOM       XC          
 Al      1           
 ---------------------------------------------------------
 Initial plane wave basis and FFT box
 ---------------------------------------------------------
 DONE(0.59959    SEC) : INIT PLANEWAVE
 MEMORY FOR PSI (MB)  : 54.9023
 DONE(0.610957   SEC) : LOCAL POTENTIAL
 DONE(0.611001   SEC) : NON-LOCAL POTENTIAL
 DONE(0.611088   SEC) : INIT BASIS
 START CHARGE      : atomic
 DONE(0.654684   SEC) : INIT SCF
 ITER   ETOT(eV)       EDIFF(eV)      DRHO       TIME(s)    
 CG1    -5.684792e+01  0.000000e+00   7.914e-02  5.821e+01  
 CG2    -5.710970e+01  -2.617865e-01  6.155e-03  1.956e+01  
 CG3    -5.711633e+01  -6.630241e-03  3.436e-05  2.431e+01  
 CG4    -5.711664e+01  -3.063080e-04  2.050e-06  3.215e+01  
 CG5    -5.711664e+01  -4.072771e-06  3.009e-08  2.205e+01  
 CG6    -5.711664e+01  -4.239284e-08  1.164e-08  2.922e+01  
 CG7    -5.711664e+01  -2.714216e-09  2.529e-12  1.805e+01  

  |CLASS_NAME---------|NAME---------------|TIME(Sec)-----|CALLS----|AVG------|PER%-------
                       total               204.26         17        12        1e+02     %
   Driver              driver_line         204.25         1         2e+02     1e+02     %
   ESolver_KS_PW       Run                 203.62         1         2e+02     1e+02     %
   Potential           update_from_charge  0.22924        8         0.029     0.11      %
   Potential           cal_v_eff           0.22815        8         0.029     0.11      %
   PotXC               cal_v_eff           0.2094         8         0.026     0.1       %
   XC_Functional       v_xc                122.63         4         31        60        %
   XC_Functional       v_xc_libxc          0.20893        8         0.026     0.1       %
   HSolverPW           solve               203.3          7         29        1e+02     %
   DiagoIterAssist     diagH_subspace      41.553         1792      0.023     20        %
   OperatorPW          hPsi                190            102851    0.0018    93        %
   Operator            EkineticPW          0.55652        102851    5.4e-06   0.27      %
   Operator            VeffPW              188.89         102851    0.0018    92        %
   PW_Basis_K          recip2real          94.018         130772    0.00072   46        %
   PW_Basis_K          gathers_scatterp    6.293          130772    4.8e-05   3.1       %
   PW_Basis_K          real2recip          88.89          127939    0.00069   44        %
   PW_Basis_K          gatherp_scatters    2.2799         127939    1.8e-05   1.1       %
   DiagoIterAssist     LAPACK_subspace     0.35919        1792      0.0002    0.18      %
   DiagoCG             diag_once           157.74         1792      0.088     77        %
   ElecStatePW         psiToRho            2.2832         7         0.33      1.1       %
 ----------------------------------------------------------------------------------------

 START  Time  : Wed Dec 28 12:18:12 2022
 FINISH Time  : Wed Dec 28 12:21:36 2022
 TOTAL  Time  : 2e+02
 SEE INFORMATION IN : OUT.blpstest/
