                                                                                     
                             WELCOME TO ABACUS                                       
                                                                                     
               'Atomic-orbital Based Ab-initio Computation at UStc'                  
                                                                                     
                     Website: http://abacus.ustc.edu.cn/                             
                                                                                     
    Version: Parallel, in development
    Processor Number is 1
    Start Time is Fri Sep 10 12:19:26 2021
                                                                                     
 ------------------------------------------------------------------------------------

 READING GENERAL INFORMATION
                           global_out_dir = OUT.blpstest/
                           global_in_card = INPUT
                               pseudo_dir = ./
                              orbital_dir = ./
                              pseudo_type = blps
                                    DRANK = 1
                                    DSIZE = 1
                                   DCOLOR = 1
                                    GRANK = 1
                                    GSIZE = 1




 >>>>>>>>>>>>>>>>>>>>>>>>>>>>>>>>>>>>>>>>>>>>>>>>>>>>>>>>>>>>>>>>>>>>>>
 |                                                                    |
 | Reading atom information in unitcell:                              |
 | From the input file and the structure file we know the number of   |
 | different elments in this unitcell, then we list the detail        |
 | information for each element, especially the zeta and polar atomic |
 | orbital number for each element. The total atom number is counted. |
 | We calculate the nearest atom distance for each atom and show the  |
 | Cartesian and Direct coordinates for each atom. We list the file   |
 | address for atomic orbitals. The volume and the lattice vectors    |
 | in real and reciprocal space is also shown.                        |
 |                                                                    |
 <<<<<<<<<<<<<<<<<<<<<<<<<<<<<<<<<<<<<<<<<<<<<<<<<<<<<<<<<<<<<<<<<<<<<<




 READING UNITCELL INFORMATION
                                    ntype = 1
                 atom label for species 1 = Si
                  lattice constant (Bohr) = 11.2423
              lattice constant (Angstrom) = 5.94918

 READING ATOM TYPE 1
                               atom label = Si
                      L=0, number of zeta = 1
                      L=1, number of zeta = 1
                      L=2, number of zeta = 1
             number of atom for this type = 2
                      start magnetization = FALSE
                      start magnetization = FALSE

                        TOTAL ATOM NUMBER = 2

 DIRECT COORDINATES
         atom                   x                   y                   z                 mag                  vx                  vy                  vz
     taud_Si1                   0                   0                   0                   0                   0                   0                   0
     taud_Si2                0.25                0.25                0.25                   0                   0                   0                   0


                          Volume (Bohr^3) = 355.23
                             Volume (A^3) = 52.6396

 Lattice vectors: (Cartesian coordinate: in unit of a_0)
                   +0                +0.5                +0.5
                 +0.5                  +0                +0.5
                 +0.5                +0.5                  +0
 Reciprocal vectors: (Cartesian coordinate: in unit of 2 pi/a_0)
                   -1                  +1                  +1
                   +1                  -1                  +1
                   +1                  +1                  -1




 >>>>>>>>>>>>>>>>>>>>>>>>>>>>>>>>>>>>>>>>>>>>>>>>>>>>>>>>>>>>>>>>>>>>>>
 |                                                                    |
 | Reading pseudopotentials files:                                    |
 | The pseudopotential file is in UPF format. The 'NC' indicates that |
 | the type of pseudopotential is 'norm conserving'. Functional of    |
 | exchange and correlation is decided by 4 given parameters in UPF   |
 | file.  We also read in the 'core correction' if there exists.      |
 | Also we can read the valence electrons number and the maximal      |
 | angular momentum used in this pseudopotential. We also read in the |
 | trail wave function, trail atomic density and local-pseudopotential|
 | on logrithmic grid. The non-local pseudopotential projector is also|
 | read in if there is any.                                           |
 |                                                                    |
 <<<<<<<<<<<<<<<<<<<<<<<<<<<<<<<<<<<<<<<<<<<<<<<<<<<<<<<<<<<<<<<<<<<<<<




                PAO radial cut off (Bohr) = 16

 Read in pseudopotential file is si.lda.lps
                     pseudopotential type = 
                            functional Ex = LDA
                            functional Ec = LDA
                          functional GCEx = NOGX
                          functional GCEc = NOGC
                 nonlocal core correction = 0
                        valence electrons = 4
                                     lmax = 0
                           number of zeta = 0
                     number of projectors = 0
     initial pseudo atomic orbital number = 0
                                   NLOCAL = 18

 SETUP THE ELECTRONS NUMBER
            electron number of element Si = 4
      total electron number of element Si = 8
                           occupied bands = 4
                                   NBANDS = 15
 DONE : SETUP UNITCELL Time : 0.0111661 (SEC)





 >>>>>>>>>>>>>>>>>>>>>>>>>>>>>>>>>>>>>>>>>>>>>>>>>>>>>>>>>>>>>>>>>>>>>>
 |                                                                    |
 | Doing symmetry analysis:                                           |
 | We calculate the norm of 3 vectors and the angles between them,    |
 | the type of Bravais lattice is given. We can judge if the unticell |
 | is a primitive cell. Finally we give the point group operation for |
 | this unitcell. We we use the point group operations to do symmetry |
 | analysis on given k-point mesh and the charge density.             |
 |                                                                    |
 <<<<<<<<<<<<<<<<<<<<<<<<<<<<<<<<<<<<<<<<<<<<<<<<<<<<<<<<<<<<<<<<<<<<<<




 LATTICE VECTORS: (CARTESIAN COORDINATE: IN UNIT OF A0)
                   +0                +0.5                +0.5
                 +0.5                  +0                +0.5
                 +0.5                +0.5                  +0
                       right hand lattice = 1
                                   NORM_A = 0.707107
                                   NORM_B = 0.707107
                                   NORM_C = 0.707107
                           ALPHA (DEGREE) = 60
                           BETA  (DEGREE) = 60
                           GAMMA (DEGREE) = 60
                             BRAVAIS TYPE = 3
                     BRAVAIS LATTICE NAME = 03. Cubic F (face-centered)
 STANDARD LATTICE VECTORS: (CARTESIAN COORDINATE: IN UNIT OF A0)
                   +0                +0.5                +0.5
                 +0.5                  +0                +0.5
                 +0.5                +0.5                  +0
                                    IBRAV = 3
                                  BRAVAIS = FACE CENTERED CUBIC
                       LATTICE CONSTANT A = 4.12311
                                    ibrav = 3
                        ROTATION MATRICES = 48
              PURE POINT GROUP OPERATIONS = 24
                   SPACE GROUP OPERATIONS = 48
                                       C2 = 3
                                       C3 = 8
                                       C4 = 0
                                       C6 = 0
                                       S1 = 6
                                       S3 = 0
                                       S4 = 6
                                       S6 = 0
                              POINT GROUP = T_d
 DONE : SYMMETRY Time : 0.0669041 (SEC)





 >>>>>>>>>>>>>>>>>>>>>>>>>>>>>>>>>>>>>>>>>>>>>>>>>>>>>>>>>>>>>>>>>>>>>>
 |                                                                    |
 | Setup K-points                                                     |
 | We setup the k-points according to input parameters.               |
 | The reduced k-points are set according to symmetry operations.     |
 | We treat the spin as another set of k-points.                      |
 |                                                                    |
 <<<<<<<<<<<<<<<<<<<<<<<<<<<<<<<<<<<<<<<<<<<<<<<<<<<<<<<<<<<<<<<<<<<<<<





 SETUP K-POINTS
                                    nspin = 1
                   Input type of k points = Monkhorst-Pack(Gamma)
                                   nkstot = 1728
                               nkstot_ibz = 72
      IBZ             DirectX             DirectY             DirectZ              Weight    ibz2bz
        1                   0                   0                   0         0.000578704         0
        2            0.916667            0.916667            0.916667          0.00462963         1
        3            0.833333            0.833333            0.833333          0.00462963         2
        4                0.75                0.75                0.75          0.00462963         3
        5            0.666667            0.666667            0.666667          0.00462963         4
        6            0.583333            0.583333            0.583333          0.00462963         5
        7                 0.5                 0.5                 0.5          0.00231481         6
        8                   0            0.916667            0.916667          0.00347222        13
        9            0.916667            0.833333            0.833333           0.0138889        14
       10            0.833333                0.75                0.75           0.0138889        15
       11            0.916667            0.916667                0.25           0.0138889        16
       12            0.916667            0.916667            0.333333           0.0138889        17
       13            0.916667            0.916667            0.416667           0.0138889        18
       14            0.916667            0.916667                 0.5           0.0138889        19
       15            0.916667            0.916667            0.583333           0.0138889        20
       16            0.916667            0.916667            0.666667           0.0138889        21
       17            0.916667            0.916667                0.75           0.0138889        22
       18            0.916667            0.916667            0.833333          0.00694444        23
       19            0.833333            0.833333                   0          0.00347222        26
       20            0.916667                0.75                0.75           0.0138889        27
       21            0.666667            0.666667            0.833333           0.0138889        28
       22            0.833333            0.833333                0.25           0.0138889        29
       23            0.833333            0.833333            0.333333           0.0138889        30
       24            0.833333            0.833333            0.416667           0.0138889        31
       25            0.833333            0.833333                 0.5           0.0138889        32
       26            0.833333            0.833333            0.583333           0.0138889        33
       27            0.833333            0.833333            0.666667          0.00694444        34
       28                   0                0.75                0.75          0.00347222        39
       29            0.916667            0.666667            0.666667           0.0138889        40
       30            0.833333            0.583333            0.583333           0.0138889        41
       31                0.75                0.75                0.25           0.0138889        42
       32                0.75                0.75            0.333333           0.0138889        43
       33                0.75                0.75            0.416667           0.0138889        44
       34                0.75                0.75                 0.5          0.00694444        45
       35                   0            0.666667            0.666667          0.00347222        52
       36            0.916667            0.583333            0.583333           0.0138889        53
       37            0.833333                 0.5                 0.5           0.0138889        54
       38            0.666667            0.666667                0.25           0.0138889        55
       39            0.666667            0.666667            0.333333          0.00694444        56
       40            0.583333            0.583333                   0          0.00347222        65
       41            0.916667                 0.5                 0.5           0.0138889        66
       42            0.833333            0.416667            0.416667          0.00694444        67
       43                   0                 0.5                 0.5          0.00173611        78
       44            0.916667            0.833333                0.75           0.0138889       171
       45            0.916667            0.833333            0.666667           0.0277778       172
       46            0.916667            0.833333            0.583333           0.0277778       173
       47            0.916667            0.833333                 0.5           0.0277778       174
       48            0.916667            0.833333            0.416667           0.0138889       175
       49            0.916667                0.75            0.666667           0.0138889       184
       50            0.916667                0.75            0.583333           0.0277778       185
       51            0.916667                0.75                 0.5           0.0277778       186
       52            0.916667                0.75            0.416667           0.0277778       187
       53            0.916667                0.75            0.333333           0.0277778       188
       54            0.833333                0.75                 0.5           0.0277778       189
       55            0.833333                0.75            0.583333           0.0138889       190
       56            0.916667            0.666667            0.583333           0.0138889       197
       57            0.916667            0.666667                 0.5           0.0277778       198
       58            0.916667            0.666667            0.416667           0.0277778       199
       59            0.916667            0.666667            0.333333           0.0277778       200
       60            0.916667            0.666667                0.25           0.0138889       201
       61            0.916667            0.583333                 0.5           0.0138889       210
       62            0.916667            0.583333            0.416667           0.0277778       211
       63            0.916667            0.583333            0.333333           0.0138889       212
       64            0.916667                 0.5            0.416667          0.00694444       223
       65            0.833333            0.666667                 0.5           0.0138889       342
       66            0.833333            0.666667            0.416667           0.0277778       343
       67            0.833333            0.666667            0.333333           0.0138889       344
       68            0.833333            0.583333            0.416667           0.0138889       355
       69            0.833333            0.583333            0.333333           0.0277778       356
       70            0.833333            0.583333                0.25           0.0138889       357
       71            0.833333                 0.5            0.333333          0.00694444       368
       72                0.75                 0.5                0.25          0.00347222       513
                               nkstot now = 72

  KPOINTS            DIRECT_X            DIRECT_Y            DIRECT_Z              WEIGHT
        1                   0                   0                   0         0.000578704
        2            0.916667            0.916667            0.916667          0.00462963
        3            0.833333            0.833333            0.833333          0.00462963
        4                0.75                0.75                0.75          0.00462963
        5            0.666667            0.666667            0.666667          0.00462963
        6            0.583333            0.583333            0.583333          0.00462963
        7                 0.5                 0.5                 0.5          0.00231481
        8                   0            0.916667            0.916667          0.00347222
        9            0.916667            0.833333            0.833333           0.0138889
       10            0.833333                0.75                0.75           0.0138889
       11            0.916667            0.916667                0.25           0.0138889
       12            0.916667            0.916667            0.333333           0.0138889
       13            0.916667            0.916667            0.416667           0.0138889
       14            0.916667            0.916667                 0.5           0.0138889
       15            0.916667            0.916667            0.583333           0.0138889
       16            0.916667            0.916667            0.666667           0.0138889
       17            0.916667            0.916667                0.75           0.0138889
       18            0.916667            0.916667            0.833333          0.00694444
       19            0.833333            0.833333                   0          0.00347222
       20            0.916667                0.75                0.75           0.0138889
       21            0.666667            0.666667            0.833333           0.0138889
       22            0.833333            0.833333                0.25           0.0138889
       23            0.833333            0.833333            0.333333           0.0138889
       24            0.833333            0.833333            0.416667           0.0138889
       25            0.833333            0.833333                 0.5           0.0138889
       26            0.833333            0.833333            0.583333           0.0138889
       27            0.833333            0.833333            0.666667          0.00694444
       28                   0                0.75                0.75          0.00347222
       29            0.916667            0.666667            0.666667           0.0138889
       30            0.833333            0.583333            0.583333           0.0138889
       31                0.75                0.75                0.25           0.0138889
       32                0.75                0.75            0.333333           0.0138889
       33                0.75                0.75            0.416667           0.0138889
       34                0.75                0.75                 0.5          0.00694444
       35                   0            0.666667            0.666667          0.00347222
       36            0.916667            0.583333            0.583333           0.0138889
       37            0.833333                 0.5                 0.5           0.0138889
       38            0.666667            0.666667                0.25           0.0138889
       39            0.666667            0.666667            0.333333          0.00694444
       40            0.583333            0.583333                   0          0.00347222
       41            0.916667                 0.5                 0.5           0.0138889
       42            0.833333            0.416667            0.416667          0.00694444
       43                   0                 0.5                 0.5          0.00173611
       44            0.916667            0.833333                0.75           0.0138889
       45            0.916667            0.833333            0.666667           0.0277778
       46            0.916667            0.833333            0.583333           0.0277778
       47            0.916667            0.833333                 0.5           0.0277778
       48            0.916667            0.833333            0.416667           0.0138889
       49            0.916667                0.75            0.666667           0.0138889
       50            0.916667                0.75            0.583333           0.0277778
       51            0.916667                0.75                 0.5           0.0277778
       52            0.916667                0.75            0.416667           0.0277778
       53            0.916667                0.75            0.333333           0.0277778
       54            0.833333                0.75                 0.5           0.0277778
       55            0.833333                0.75            0.583333           0.0138889
       56            0.916667            0.666667            0.583333           0.0138889
       57            0.916667            0.666667                 0.5           0.0277778
       58            0.916667            0.666667            0.416667           0.0277778
       59            0.916667            0.666667            0.333333           0.0277778
       60            0.916667            0.666667                0.25           0.0138889
       61            0.916667            0.583333                 0.5           0.0138889
       62            0.916667            0.583333            0.416667           0.0277778
       63            0.916667            0.583333            0.333333           0.0138889
       64            0.916667                 0.5            0.416667          0.00694444
       65            0.833333            0.666667                 0.5           0.0138889
       66            0.833333            0.666667            0.416667           0.0277778
       67            0.833333            0.666667            0.333333           0.0138889
       68            0.833333            0.583333            0.416667           0.0138889
       69            0.833333            0.583333            0.333333           0.0277778
       70            0.833333            0.583333                0.25           0.0138889
       71            0.833333                 0.5            0.333333          0.00694444
       72                0.75                 0.5                0.25          0.00347222

           k-point number in this process = 72
       minimum distributed K point number = 72

  KPOINTS         CARTESIAN_X         CARTESIAN_Y         CARTESIAN_Z              WEIGHT
        1                   0                   0                   0          0.00115741
        2            0.916667            0.916667            0.916667          0.00925926
        3            0.833333            0.833333            0.833333          0.00925926
        4                0.75                0.75                0.75          0.00925926
        5            0.666667            0.666667            0.666667          0.00925926
        6            0.583333            0.583333            0.583333          0.00925926
        7                 0.5                 0.5                 0.5          0.00462963
        8             1.83333                   0                   0          0.00694444
        9                0.75            0.916667            0.916667           0.0277778
       10            0.666667            0.833333            0.833333           0.0277778
       11                0.25                0.25             1.58333           0.0277778
       12            0.333333            0.333333                 1.5           0.0277778
       13            0.416667            0.416667             1.41667           0.0277778
       14                 0.5                 0.5             1.33333           0.0277778
       15            0.583333            0.583333                1.25           0.0277778
       16            0.666667            0.666667             1.16667           0.0277778
       17                0.75                0.75             1.08333           0.0277778
       18            0.833333            0.833333                   1           0.0138889
       19                   0                   0             1.66667          0.00694444
       20            0.583333            0.916667            0.916667           0.0277778
       21            0.833333            0.833333                 0.5           0.0277778
       22                0.25                0.25             1.41667           0.0277778
       23            0.333333            0.333333             1.33333           0.0277778
       24            0.416667            0.416667                1.25           0.0277778
       25                 0.5                 0.5             1.16667           0.0277778
       26            0.583333            0.583333             1.08333           0.0277778
       27            0.666667            0.666667                   1           0.0138889
       28                 1.5                   0                   0          0.00694444
       29            0.416667            0.916667            0.916667           0.0277778
       30            0.333333            0.833333            0.833333           0.0277778
       31                0.25                0.25                1.25           0.0277778
       32            0.333333            0.333333             1.16667           0.0277778
       33            0.416667            0.416667             1.08333           0.0277778
       34                 0.5                 0.5                   1           0.0138889
       35             1.33333                   0                   0          0.00694444
       36                0.25            0.916667            0.916667           0.0277778
       37            0.166667            0.833333            0.833333           0.0277778
       38                0.25                0.25             1.08333           0.0277778
       39            0.333333            0.333333                   1           0.0138889
       40                   0                   0             1.16667          0.00694444
       41           0.0833333            0.916667            0.916667           0.0277778
       42                   0            0.833333            0.833333           0.0138889
       43                   1                   0                   0          0.00347222
       44            0.666667            0.833333                   1           0.0277778
       45            0.583333                0.75             1.08333           0.0555556
       46                 0.5            0.666667             1.16667           0.0555556
       47            0.416667            0.583333                1.25           0.0555556
       48            0.333333                 0.5             1.33333           0.0277778
       49                 0.5            0.833333                   1           0.0277778
       50            0.416667                0.75             1.08333           0.0555556
       51            0.333333            0.666667             1.16667           0.0555556
       52                0.25            0.583333                1.25           0.0555556
       53            0.166667                 0.5             1.33333           0.0555556
       54            0.416667            0.583333             1.08333           0.0555556
       55                 0.5            0.666667                   1           0.0277778
       56            0.333333            0.833333                   1           0.0277778
       57                0.25                0.75             1.08333           0.0555556
       58            0.166667            0.666667             1.16667           0.0555556
       59           0.0833333            0.583333                1.25           0.0555556
       60                   0                 0.5             1.33333           0.0277778
       61            0.166667            0.833333                   1           0.0277778
       62           0.0833333                0.75             1.08333           0.0555556
       63                   0            0.666667             1.16667           0.0277778
       64                   0            0.833333                   1           0.0138889
       65            0.333333            0.666667                   1           0.0277778
       66                0.25            0.583333             1.08333           0.0555556
       67            0.166667                 0.5             1.16667           0.0277778
       68            0.166667            0.666667                   1           0.0277778
       69           0.0833333            0.583333             1.08333           0.0555556
       70                   0                 0.5             1.16667           0.0277778
       71                   0            0.666667                   1           0.0138889
       72                   0                 0.5                   1          0.00694444

  KPOINTS            DIRECT_X            DIRECT_Y            DIRECT_Z              WEIGHT
        1                   0                   0                   0          0.00115741
        2            0.916667            0.916667            0.916667          0.00925926
        3            0.833333            0.833333            0.833333          0.00925926
        4                0.75                0.75                0.75          0.00925926
        5            0.666667            0.666667            0.666667          0.00925926
        6            0.583333            0.583333            0.583333          0.00925926
        7                 0.5                 0.5                 0.5          0.00462963
        8                   0            0.916667            0.916667          0.00694444
        9            0.916667            0.833333            0.833333           0.0277778
       10            0.833333                0.75                0.75           0.0277778
       11            0.916667            0.916667                0.25           0.0277778
       12            0.916667            0.916667            0.333333           0.0277778
       13            0.916667            0.916667            0.416667           0.0277778
       14            0.916667            0.916667                 0.5           0.0277778
       15            0.916667            0.916667            0.583333           0.0277778
       16            0.916667            0.916667            0.666667           0.0277778
       17            0.916667            0.916667                0.75           0.0277778
       18            0.916667            0.916667            0.833333           0.0138889
       19            0.833333            0.833333                   0          0.00694444
       20            0.916667                0.75                0.75           0.0277778
       21            0.666667            0.666667            0.833333           0.0277778
       22            0.833333            0.833333                0.25           0.0277778
       23            0.833333            0.833333            0.333333           0.0277778
       24            0.833333            0.833333            0.416667           0.0277778
       25            0.833333            0.833333                 0.5           0.0277778
       26            0.833333            0.833333            0.583333           0.0277778
       27            0.833333            0.833333            0.666667           0.0138889
       28                   0                0.75                0.75          0.00694444
       29            0.916667            0.666667            0.666667           0.0277778
       30            0.833333            0.583333            0.583333           0.0277778
       31                0.75                0.75                0.25           0.0277778
       32                0.75                0.75            0.333333           0.0277778
       33                0.75                0.75            0.416667           0.0277778
       34                0.75                0.75                 0.5           0.0138889
       35                   0            0.666667            0.666667          0.00694444
       36            0.916667            0.583333            0.583333           0.0277778
       37            0.833333                 0.5                 0.5           0.0277778
       38            0.666667            0.666667                0.25           0.0277778
       39            0.666667            0.666667            0.333333           0.0138889
       40            0.583333            0.583333                   0          0.00694444
       41            0.916667                 0.5                 0.5           0.0277778
       42            0.833333            0.416667            0.416667           0.0138889
       43                   0                 0.5                 0.5          0.00347222
       44            0.916667            0.833333                0.75           0.0277778
       45            0.916667            0.833333            0.666667           0.0555556
       46            0.916667            0.833333            0.583333           0.0555556
       47            0.916667            0.833333                 0.5           0.0555556
       48            0.916667            0.833333            0.416667           0.0277778
       49            0.916667                0.75            0.666667           0.0277778
       50            0.916667                0.75            0.583333           0.0555556
       51            0.916667                0.75                 0.5           0.0555556
       52            0.916667                0.75            0.416667           0.0555556
       53            0.916667                0.75            0.333333           0.0555556
       54            0.833333                0.75                 0.5           0.0555556
       55            0.833333                0.75            0.583333           0.0277778
       56            0.916667            0.666667            0.583333           0.0277778
       57            0.916667            0.666667                 0.5           0.0555556
       58            0.916667            0.666667            0.416667           0.0555556
       59            0.916667            0.666667            0.333333           0.0555556
       60            0.916667            0.666667                0.25           0.0277778
       61            0.916667            0.583333                 0.5           0.0277778
       62            0.916667            0.583333            0.416667           0.0555556
       63            0.916667            0.583333            0.333333           0.0277778
       64            0.916667                 0.5            0.416667           0.0138889
       65            0.833333            0.666667                 0.5           0.0277778
       66            0.833333            0.666667            0.416667           0.0555556
       67            0.833333            0.666667            0.333333           0.0277778
       68            0.833333            0.583333            0.416667           0.0277778
       69            0.833333            0.583333            0.333333           0.0555556
       70            0.833333            0.583333                0.25           0.0277778
       71            0.833333                 0.5            0.333333           0.0138889
       72                0.75                 0.5                0.25          0.00694444
 DONE : INIT K-POINTS Time : 0.0853412 (SEC)





 >>>>>>>>>>>>>>>>>>>>>>>>>>>>>>>>>>>>>>>>>>>>>>>>>>>>>>>>>>>>>>>>>>>>>>
 |                                                                    |
 | Setup plane waves:                                                 |
 | Use the energy cutoff and the lattice vectors to generate the      |
 | dimensions of FFT grid. The number of FFT grid on each processor   |
 | is 'nrxx'. The number of plane wave basis in reciprocal space is   |
 | different for charege/potential and wave functions. We also set    |
 | the 'sticks' for the parallel of FFT.                              |
 |                                                                    |
 <<<<<<<<<<<<<<<<<<<<<<<<<<<<<<<<<<<<<<<<<<<<<<<<<<<<<<<<<<<<<<<<<<<<<<





 SETUP THE PLANE WAVE BASIS
     energy cutoff for wavefunc (unit:Ry) = 75
            [fft grid for wave functions] = 45, 45, 45
          [fft grid for charge/potential] = 45, 45, 45
                      [fft grid division] = 1, 1, 1
      [big fft grid for charge/potential] = 45, 45, 45
                                     nbxx = 91125
                                     nrxx = 91125

 SETUP PLANE WAVES FOR CHARGE/POTENTIAL
                    number of plane waves = 30923
                         number of sticks = 1285

 SETUP PLANE WAVES FOR WAVE FUNCTIONS
                    number of plane waves = 5577
                         number of sticks = 421

 PARALLEL PW FOR CHARGE/POTENTIAL
     PROC   COLUMNS(POT)             PW
        1           1285          30923
 --------------- sum -------------------
        1           1285          30923

 PARALLEL PW FOR WAVE FUNCTIONS
     PROC     COLUMNS(W)             PW
        1            421           5577
 --------------- sum -------------------
        1            421           5577

 SETUP COORDINATES OF PLANE WAVES
              number of total plane waves = 30923

 SETUP COORDINATES OF PLANE WAVES
                            number of |g| = 322
                                  max |g| = 955
                                  min |g| = 0
 DONE : INIT PLANEWAVE Time : 0.252326 (SEC)

                                     npwx = 3924

 SETUP NONLOCAL PSEUDOPOTENTIALS IN PLANE WAVE BASIS
 Si non-local projectors:
      TOTAL NUMBER OF NONLOCAL PROJECTORS = 0

 nhm = 0, not allocate some matrix. DONE : LOCAL POTENTIAL Time : 0.337581 (SEC)


 Init Non-Local PseudoPotential table : 
 Init Non-Local-Pseudopotential done.
 DONE : NON-LOCAL POTENTIAL Time : 0.337616 (SEC)

                                start_pot = atomic
 DONE : INIT POTENTIAL Time : 0.388575 (SEC)


 Make real space PAO into reciprocal space.
       max mesh points in Pseudopotential = 1601
     dq(describe PAO in reciprocal space) = 0.01
                                    max q = 1045

 number of pseudo atomic orbitals for Si is 0
 DONE : INIT BASIS Time : 6.89426 (SEC)


 -------------------------------------------
 SELF-CONSISTENT
 -------------------------------------------

 PW ALGORITHM --------------- ION=   1  ELEC=   1--------------------------------
  K-point    CG iter num      Time(Sec)
        1       7.000000       0.743785
        2       6.533333       0.710189
        3       6.466667       0.731301
        4       7.400000       0.858870
        5       7.533333       0.891663
        6       6.866667       0.839051
        7       6.533333       0.809864
        8       6.466667       0.784744
        9       6.866667       0.828203
       10       7.666667       0.919873
       11       8.266667       1.035805
       12       7.133333       0.988918
       13       6.666667       0.955534
       14       7.133333       0.940247
       15       8.066667       1.068695
       16       7.200000       0.965543
       17       7.133333       0.958279
       18       6.666667       0.893500
       19       7.133333       0.951750
       20       7.800000       1.010984
       21       7.066667       0.947148
       22       7.133333       0.957307
       23       7.466667       0.961547
       24       7.933333       1.008788
       25       7.333333       0.961571
       26       7.200000       0.940059
       27       7.400000       0.976064
       28       7.866667       1.033920
       29       7.266667       0.951839
       30       7.666667       1.016509
       31       7.533333       1.016674
       32       7.666667       1.019986
       33       7.066667       0.925716
       34       6.666667       0.845786
       35       7.333333       0.932232
       36       7.466667       0.971056
       37       7.666667       1.020980
       38       6.800000       0.906410
       39       7.000000       0.914840
       40       6.800000       0.896258
       41       7.200000       0.972443
       42       7.000000       0.948904
       43       6.600000       0.881208
       44       7.133333       0.950759
       45       6.933333       0.925450
       46       7.333333       0.966261
       47       7.666667       1.001700
       48       7.066667       0.895936
       49       7.666667       0.957877
       50       7.200000       0.906563
       51       7.733333       1.028874
       52       7.533333       1.001874
       53       8.333333       1.113619
       54       7.200000       0.969951
       55       8.066667       1.058654
       56       7.400000       0.987453
       57       7.400000       0.997701
       58       7.400000       0.967284
       59       7.666667       0.990582
       60       7.066667       0.922639
       61       7.133333       0.913877
       62       7.600000       0.987801
       63       7.400000       0.965888
       64       7.333333       0.950062
       65       7.400000       0.925538
       66       7.466667       0.911134
       67       7.400000       0.947489
       68       7.200000       0.949136
       69       7.266667       0.959954
       70       7.800000       1.020989
       71       7.000000       0.913858
       72       7.133333       0.871843

 Density error is 1.323657723312
                          Error Threshold = 0.010000000000

       Energy                       Rydberg                            eV
   E_KohnSham              -15.953018461115             -217.051951370358
     E_Harris              -16.526682631364             -224.857052824178
      E_Fermi               +0.072015661022               +0.979823335138

 PW ALGORITHM --------------- ION=   1  ELEC=   2--------------------------------
  K-point    CG iter num      Time(Sec)
        1       2.266667       0.348400
        2       2.400000       0.361158
        3       2.400000       0.357787
        4       2.400000       0.364853
        5       2.400000       0.371772
        6       2.466667       0.370243
        7       2.333333       0.351720
        8       2.333333       0.344653
        9       2.533333       0.379847
       10       2.400000       0.385465
       11       2.400000       0.362108
       12       2.466667       0.368807
       13       2.533333       0.354961
       14       2.466667       0.352357
       15       2.466667       0.370450
       16       2.400000       0.365862
       17       2.400000       0.368831
       18       2.466667       0.365796
       19       2.400000       0.344826
       20       2.400000       0.353205
       21       2.466667       0.353899
       22       2.466667       0.351509
       23       2.466667       0.349405
       24       2.400000       0.346272
       25       2.466667       0.354623
       26       2.466667       0.364588
       27       2.533333       0.377268
       28       2.666667       0.390112
       29       2.400000       0.355152
       30       2.333333       0.364225
       31       2.466667       0.381746
       32       2.733333       0.411781
       33       2.466667       0.382280
       34       2.533333       0.391904
       35       2.466667       0.383084
       36       2.333333       0.367581
       37       2.333333       0.365462
       38       2.333333       0.364701
       39       2.400000       0.368039
       40       2.400000       0.358340
       41       2.400000       0.366256
       42       2.400000       0.373536
       43       2.466667       0.367046
       44       2.400000       0.328998
       45       2.466667       0.347621
       46       2.400000       0.359282
       47       2.400000       0.361666
       48       2.466667       0.352126
       49       2.400000       0.338830
       50       2.600000       0.351898
       51       2.466667       0.345235
       52       2.466667       0.347027
       53       2.466667       0.353191
       54       2.466667       0.353019
       55       2.400000       0.343198
       56       2.400000       0.352009
       57       2.400000       0.355629
       58       2.466667       0.351180
       59       2.600000       0.365505
       60       2.466667       0.361166
       61       2.400000       0.364118
       62       2.333333       0.344980
       63       2.400000       0.349848
       64       2.400000       0.354557
       65       2.400000       0.351507
       66       2.466667       0.356104
       67       2.400000       0.350359
       68       2.600000       0.373978
       69       2.733333       0.389031
       70       2.466667       0.353685
       71       2.400000       0.351986
       72       2.800000       0.389853

 Density error is 0.035071017066
                          Error Threshold = 0.010000000000

       Energy                       Rydberg                            eV
   E_KohnSham              -16.057597894192             -218.474827553819
     E_Harris              -16.049819559857             -218.368997885907
      E_Fermi               +0.240685953092               +3.274700390615

 PW ALGORITHM --------------- ION=   1  ELEC=   3--------------------------------
  K-point    CG iter num      Time(Sec)
        1       2.466667       0.387381
        2       2.600000       0.335523
        3       2.866667       0.363172
        4       3.600000       0.422004
        5       2.866667       0.358420
        6       2.733333       0.339047
        7       2.533333       0.299827
        8       2.666667       0.310391
        9       2.800000       0.335112
       10       3.200000       0.358192
       11       3.133333       0.370359
       12       3.000000       0.330322
       13       2.666667       0.294500
       14       2.800000       0.294231
       15       2.933333       0.303333
       16       3.400000       0.330312
       17       3.133333       0.306590
       18       2.800000       0.274828
       19       3.333333       0.298699
       20       3.066667       0.291606
       21       3.200000       0.304870
       22       3.133333       0.293377
       23       2.933333       0.275923
       24       2.933333       0.291683
       25       3.066667       0.323004
       26       3.066667       0.328064
       27       2.866667       0.310669
       28       3.200000       0.342181
       29       3.333333       0.356762
       30       3.266667       0.334185
       31       3.733333       0.385369
       32       3.133333       0.302567
       33       3.066667       0.318438
       34       3.733333       0.372304
       35       4.000000       0.401184
       36       3.733333       0.376947
       37       3.333333       0.341236
       38       3.600000       0.359434
       39       4.800000       0.459849
       40       3.066667       0.309618
       41       3.200000       0.319797
       42       3.066667       0.301127
       43       3.266667       0.312156
       44       3.066667       0.300641
       45       3.266667       0.311546
       46       2.933333       0.291110
       47       2.933333       0.288108
       48       3.266667       0.314063
       49       3.333333       0.323044
       50       3.066667       0.304236
       51       3.733333       0.360031
       52       3.333333       0.348877
       53       3.066667       0.313653
       54       3.733333       0.362391
       55       2.866667       0.300274
       56       3.533333       0.351055
       57       3.466667       0.338377
       58       4.066667       0.376656
       59       3.000000       0.295671
       60       3.133333       0.318443
       61       3.666667       0.356965
       62       3.533333       0.339219
       63       3.866667       0.376075
       64       3.066667       0.330691
       65       3.133333       0.342772
       66       3.066667       0.317110
       67       3.200000       0.338217
       68       2.866667       0.306648
       69       4.000000       0.405009
       70       3.000000       0.322448
       71       3.733333       0.404400
       72       3.266667       0.345184

 Density error is 0.000772579817
                          Error Threshold = 0.000438387713

       Energy                       Rydberg                            eV
   E_KohnSham              -16.061771286695             -218.531609471838
     E_Harris              -16.061529055184             -218.528313743063
      E_Fermi               +0.269279420741               +3.663734476218

 PW ALGORITHM --------------- ION=   1  ELEC=   4--------------------------------
  K-point    CG iter num      Time(Sec)
        1       2.933333       0.329514
        2       3.066667       0.337368
        3       3.133333       0.345545
        4       3.466667       0.379712
        5       3.266667       0.352049
        6       3.200000       0.344562
        7       4.266667       0.458438
        8       2.933333       0.334545
        9       3.133333       0.363554
       10       4.066667       0.435372
       11       3.866667       0.427903
       12       3.200000       0.357202
       13       3.466667       0.379612
       14       3.266667       0.365385
       15       3.800000       0.408958
       16       3.666667       0.406973
       17       4.000000       0.441054
       18       2.866667       0.333000
       19       3.133333       0.354401
       20       4.333333       0.463463
       21       3.800000       0.411405
       22       3.666667       0.400002
       23       3.200000       0.361417
       24       3.533333       0.389717
       25       3.533333       0.389872
       26       4.466667       0.478422
       27       3.666667       0.408539
       28       3.600000       0.398909
       29       4.333333       0.444742
       30       3.800000       0.379099
       31       3.466667       0.328865
       32       3.733333       0.352543
       33       3.733333       0.387259
       34       3.466667       0.347035
       35       4.466667       0.387202
       36       4.133333       0.391669
       37       3.666667       0.354269
       38       5.466667       0.505253
       39       4.200000       0.391644
       40       3.866667       0.358456
       41       3.533333       0.332204
       42       5.533333       0.486902
       43       3.666667       0.346679
       44       3.600000       0.340764
       45       3.533333       0.335495
       46       3.733333       0.351846
       47       3.600000       0.347438
       48       3.866667       0.363073
       49       3.466667       0.337082
       50       3.466667       0.330150
       51       3.800000       0.356706
       52       3.666667       0.345168
       53       3.466667       0.324016
       54       3.800000       0.344796
       55       3.666667       0.339375
       56       3.733333       0.354585
       57       3.733333       0.334075
       58       3.400000       0.308481
       59       4.866667       0.464757
       60       3.733333       0.307999
       61       3.733333       0.301075
       62       3.666667       0.305215
       63       4.866667       0.358374
       64       4.000000       0.298269
       65       3.600000       0.268184
       66       3.666667       0.269023
       67       4.800000       0.344119
       68       3.600000       0.267775
       69       4.000000       0.291462
       70       3.866667       0.281764
       71       4.400000       0.305582
       72       4.200000       0.278729

 Density error is 0.000008279686
                          Error Threshold = 0.000009657248

       Energy                       Rydberg                            eV
   E_KohnSham              -16.062011507730             -218.534877846702
     E_Harris              -16.062012754565             -218.534894810765
      E_Fermi               +0.264221437355               +3.594917081775

 PW ALGORITHM --------------- ION=   1  ELEC=   5--------------------------------
  K-point    CG iter num      Time(Sec)
        1       3.133333       0.220422
        2       3.000000       0.215079
        3       3.466667       0.238017
        4       3.933333       0.266731
        5       3.866667       0.259643
        6       3.400000       0.234496
        7       3.533333       0.241194
        8       3.200000       0.218240
        9       3.600000       0.242164
       10       3.866667       0.256915
       11       3.866667       0.258132
       12       3.800000       0.254517
       13       3.600000       0.239447
       14       3.266667       0.223912
       15       3.666667       0.244008
       16       3.800000       0.250789
       17       3.866667       0.254757
       18       3.533333       0.231793
       19       3.533333       0.225361
       20       4.000000       0.249254
       21       4.000000       0.249569
       22       3.866667       0.237448
       23       3.866667       0.237477
       24       3.333333       0.206968
       25       3.600000       0.225341
       26       4.133333       0.253480
       27       3.600000       0.226146
       28       3.800000       0.233672
       29       3.933333       0.238720
       30       3.733333       0.228507
       31       5.000000       0.308210
       32       3.866667       0.245080
       33       3.866667       0.221012
       34       3.866667       0.224415
       35       4.266667       0.243468
       36       4.266667       0.242809
       37       4.400000       0.252394
       38       4.733333       0.275671
       39       4.533333       0.262417
       40       4.000000       0.238837
       41       3.733333       0.225999
       42       4.000000       0.237746
       43       3.933333       0.228926
       44       3.933333       0.233693
       45       3.800000       0.230702
       46       3.933333       0.235046
       47       3.466667       0.206759
       48       3.400000       0.197794
       49       3.800000       0.218672
       50       3.800000       0.218342
       51       3.733333       0.215849
       52       3.800000       0.218109
       53       3.733333       0.216659
       54       3.600000       0.209109
       55       3.533333       0.207021
       56       4.066667       0.229042
       57       3.866667       0.222838
       58       4.200000       0.242254
       59       4.400000       0.256462
       60       3.666667       0.222253
       61       4.800000       0.275742
       62       4.466667       0.258837
       63       4.466667       0.257826
       64       4.466667       0.257574
       65       4.000000       0.228598
       66       3.666667       0.212678
       67       4.466667       0.251027
       68       3.666667       0.214055
       69       4.000000       0.225561
       70       3.800000       0.222618
       71       4.133333       0.238352
       72       4.133333       0.236885

 Density error is 0.000001631790
                          Error Threshold = 0.000000103496

       Energy                       Rydberg                            eV
   E_KohnSham              -16.062013936263             -218.534910888581
     E_Harris              -16.062014771739             -218.534922255823
      E_Fermi               +0.264080097031               +3.592994048019

 PW ALGORITHM --------------- ION=   1  ELEC=   6--------------------------------
  K-point    CG iter num      Time(Sec)
        1       2.000000       0.127332
        2       2.000000       0.124882
        3       2.133333       0.133975
        4       2.200000       0.133563
        5       2.266667       0.140174
        6       2.400000       0.142705
        7       2.000000       0.126927
        8       2.000000       0.127291
        9       2.000000       0.124477
       10       2.200000       0.132594
       11       2.400000       0.145106
       12       2.333333       0.139248
       13       2.200000       0.132627
       14       2.400000       0.140965
       15       2.333333       0.136609
       16       2.400000       0.140684
       17       2.133333       0.129310
       18       2.000000       0.123450
       19       2.200000       0.130583
       20       2.400000       0.141718
       21       2.400000       0.140903
       22       2.266667       0.135991
       23       2.333333       0.137846
       24       2.266667       0.134730
       25       2.200000       0.134599
       26       2.400000       0.143935
       27       2.266667       0.135992
       28       2.733333       0.155623
       29       2.800000       0.158527
       30       2.400000       0.139080
       31       2.533333       0.145326
       32       2.333333       0.129401
       33       2.266667       0.126663
       34       2.466667       0.134448
       35       2.533333       0.137398
       36       2.466667       0.133649
       37       2.733333       0.144917
       38       2.533333       0.137049
       39       2.333333       0.129696
       40       2.466667       0.134869
       41       2.400000       0.131350
       42       2.466667       0.135306
       43       2.533333       0.138638
       44       2.200000       0.125020
       45       2.200000       0.127378
       46       2.200000       0.127520
       47       2.400000       0.134705
       48       2.800000       0.150196
       49       2.466667       0.136292
       50       2.333333       0.130031
       51       2.866667       0.154374
       52       2.466667       0.136423
       53       2.333333       0.131802
       54       2.600000       0.143738
       55       2.533333       0.139484
       56       2.266667       0.127844
       57       2.666667       0.146020
       58       2.600000       0.142906
       59       3.000000       0.157908
       60       2.400000       0.133148
       61       2.600000       0.141445
       62       2.466667       0.133542
       63       2.666667       0.143499
       64       2.466667       0.134193
       65       2.400000       0.133376
       66       2.400000       0.131669
       67       2.666667       0.142034
       68       2.466667       0.134563
       69       3.000000       0.157349
       70       2.533333       0.137603
       71       2.533333       0.138738
       72       2.600000       0.140155

 Density error is 0.000000036354
                          Error Threshold = 0.000000020397

       Energy                       Rydberg                            eV
   E_KohnSham              -16.062014245043             -218.534915089755
     E_Harris              -16.062014253680             -218.534915207266
       E_band               -0.760628458189              -10.348881092321
   E_one_elec               +2.450387268994              +33.339229164976
    E_Hartree               +1.340570472759              +18.239397000079
         E_xc               -4.520074181390              -61.498764249586
      E_Ewald              -15.332896213957             -208.614755352448
      E_demet               -0.000001591449               -0.000021652776
      E_descf               +0.000000000000               +0.000000000000
     E_efield               +0.000000000000               +0.000000000000
        E_exx               +0.000000000000               +0.000000000000
      E_Fermi               +0.264148047444               +3.593918560815

 charge density convergence is achieved
 final etot is -218.534915089755 eV

 STATE ENERGY(eV) AND OCCUPATIONS    NSPIN == 1
 1/72 kpoint (Cartesian) = 0.00000 0.00000 0.00000 (3839 pws)
       1      -7.644785       0.001157
       2       2.412053       0.001157
       3       3.714388       0.000000
       4       3.714388       0.000000
       5       3.714388       0.000000
       6       6.199236       0.000000
       7       6.199236       0.000000
       8       6.199236       0.000000
       9       9.669368       0.000000
      10      12.052405       0.000000
      11      12.052405       0.000000
      12      14.128042       0.000000
      13      14.128042       0.000000
      14      14.128042       0.000000
      15      16.830161       0.000000

 2/72 kpoint (Cartesian) = 0.916667 0.916667 0.916667 (3858 pws)
       1      -7.574009       0.009259
       2       1.654830       0.009259
       3       3.593801       0.004856
       4       3.593801       0.004856
       5       4.083976       0.000000
       6       6.374007       0.000000
       7       6.374007       0.000000
       8       6.406516       0.000000
       9      10.087690       0.000000
      10      11.715322       0.000000
      11      11.715322       0.000000
      12      13.757907       0.000000
      13      14.745868       0.000000
      14      14.745868       0.000000
      15      17.470497       0.000000

 3/72 kpoint (Cartesian) = 0.833333 0.833333 0.833333 (3879 pws)
       1      -7.365060       0.009259
       2       0.425992       0.009259
       3       3.327759       0.009259
       4       3.327759       0.009259
       5       4.150823       0.000000
       6       6.756780       0.000000
       7       6.756780       0.000000
       8       7.218635       0.000000
       9      11.005817       0.000000
      10      11.298783       0.000000
      11      11.298783       0.000000
      12      13.307572       0.000000
      13      16.043162       0.000000
      14      16.043162       0.000000
      15      18.854271       0.000000

 4/72 kpoint (Cartesian) = 0.750000 0.750000 0.750000 (3879 pws)
       1      -7.030581       0.009259
       2      -0.800648       0.009259
       3       3.049972       0.009259
       4       3.049972       0.009259
       5       3.914717       0.000000
       6       7.090855       0.000000
       7       7.090855       0.000000
       8       8.441901       0.000000
       9      11.293636       0.000000
      10      11.293636       0.000000
      11      11.423079       0.000000
      12      13.849029       0.000000
      13      17.591045       0.000000
      14      17.591045       0.000000
      15      19.621505       0.000000

 5/72 kpoint (Cartesian) = 0.666667 0.666667 0.666667 (3873 pws)
       1      -6.603699       0.009259
       2      -1.898829       0.009259
       3       2.828097       0.009259
       4       2.828097       0.009259
       5       3.664268       0.000000
       6       7.227939       0.000000
       7       7.227939       0.000000
       8       9.826009       0.000000
       9      11.222563       0.000000
      10      11.857149       0.000000
      11      11.857149       0.000000
      12      15.090076       0.000000
      13      17.787591       0.000000
      14      17.787591       0.000000
      15      18.202609       0.000000

 6/72 kpoint (Cartesian) = 0.583333 0.583333 0.583333 (3873 pws)
       1      -6.175070       0.009259
       2      -2.741069       0.009259
       3       2.688766       0.009259
       4       2.688766       0.009259
       5       3.495865       0.009259
       6       7.229254       0.000000
       7       7.229254       0.000000
       8      10.767771       0.000000
       9      11.582178       0.000000
      10      12.907896       0.000000
      11      12.907896       0.000000
      12      14.681682       0.000000
      13      16.037506       0.000000
      14      16.037506       0.000000
      15      18.906303       0.000000

 7/72 kpoint (Cartesian) = 0.500000 0.500000 0.500000 (3852 pws)
       1      -5.967800       0.004630
       2      -3.087811       0.004630
       3       2.641545       0.004630
       4       2.641545       0.004630
       5       3.437629       0.004630
       6       7.214418       0.000000
       7       7.214418       0.000000
       8      10.759843       0.000000
       9      13.029684       0.000000
      10      13.221684       0.000000
      11      14.060226       0.000000
      12      14.060226       0.000000
      13      14.637937       0.000000
      14      14.637937       0.000000
      15      20.916493       0.000000

 8/72 kpoint (Cartesian) = 1.833333 0.000000 0.000000 (3867 pws)
       1      -7.550210       0.006944
       2       1.535641       0.006944
       3       3.371489       0.006944
       4       3.371489       0.006944
       5       4.571381       0.000000
       6       5.885767       0.000000
       7       6.671613       0.000000
       8       6.671613       0.000000
       9      10.213780       0.000000
      10      11.142003       0.000000
      11      12.167935       0.000000
      12      14.331961       0.000000
      13      14.331961       0.000000
      14      14.679119       0.000000
      15      17.766880       0.000000

 9/72 kpoint (Cartesian) = 0.750000 0.916667 0.916667 (3869 pws)
       1      -7.386579       0.027778
       2       0.628274       0.027778
       3       3.064851       0.027778
       4       3.075836       0.027778
       5       4.909480       0.000000
       6       5.905401       0.000000
       7       7.133696       0.000000
       8       7.287854       0.000000
       9      10.593028       0.000000
      10      10.989194       0.000000
      11      12.023754       0.000000
      12      13.896437       0.000000
      13      15.100830       0.000000
      14      15.865460       0.000000
      15      18.968043       0.000000

 10/72 kpoint (Cartesian) = 0.666667 0.833333 0.833333 (3889 pws)
       1      -7.091899       0.027778
       2      -0.504468       0.027778
       3       2.708346       0.027778
       4       2.787511       0.027778
       5       4.781670       0.000000
       6       6.374390       0.000000
       7       7.524806       0.000000
       8       8.121402       0.000000
       9      10.523345       0.000000
      10      11.802860       0.000000
      11      11.948473       0.000000
      12      13.836101       0.000000
      13      16.478612       0.000000
      14      17.465141       0.000000
      15      19.786394       0.000000

 11/72 kpoint (Cartesian) = 0.250000 0.250000 1.583333 (3876 pws)
       1      -6.689877       0.027778
       2      -1.604017       0.027778
       3       2.355907       0.027778
       4       2.591742       0.027778
       5       4.540879       0.000000
       6       6.799399       0.000000
       7       7.675061       0.000000
       8       8.982574       0.000000
       9      11.133312       0.000000
      10      11.900981       0.000000
      11      12.382893       0.000000
      12      14.818623       0.000000
      13      17.449501       0.000000
      14      17.907730       0.000000
      15      18.728191       0.000000

 12/72 kpoint (Cartesian) = 0.333333 0.333333 1.500000 (3886 pws)
       1      -6.244210       0.027778
       2      -2.525739       0.027778
       3       2.083830       0.027778
       4       2.497278       0.027778
       5       4.341264       0.000000
       6       6.984408       0.000000
       7       7.619119       0.000000
       8       9.999416       0.000000
       9      11.613290       0.000000
      10      12.485247       0.000000
      11      13.329020       0.000000
      12      14.768674       0.000000
      13      15.848168       0.000000
      14      17.620343       0.000000
      15      18.684307       0.000000

 13/72 kpoint (Cartesian) = 0.416667 0.416667 1.416667 (3886 pws)
       1      -5.928289       0.027778
       2      -3.062970       0.027778
       3       1.917087       0.027778
       4       2.508419       0.027778
       5       4.228941       0.000000
       6       7.074976       0.000000
       7       7.497531       0.000000
       8      10.814223       0.000000
       9      12.059835       0.000000
      10      13.272287       0.000000
      11      13.921919       0.000000
      12      13.989278       0.000000
      13      14.829826       0.000000
      14      16.324225       0.000000
      15      20.286960       0.000000

 14/72 kpoint (Cartesian) = 0.500000 0.500000 1.333333 (3881 pws)
       1      -6.002421       0.027778
       2      -2.943560       0.027778
       3       1.866910       0.027778
       4       2.620694       0.027778
       5       4.219177       0.000000
       6       7.184812       0.000000
       7       7.389558       0.000000
       8      10.831155       0.000000
       9      11.922758       0.000000
      10      12.609421       0.000000
      11      13.416658       0.000000
      12      14.551183       0.000000
      13      15.716147       0.000000
      14      16.347440       0.000000
      15      19.458052       0.000000

 15/72 kpoint (Cartesian) = 0.583333 0.583333 1.250000 (3886 pws)
       1      -6.391885       0.027778
       2      -2.245147       0.027778
       3       1.941054       0.027778
       4       2.822284       0.027778
       5       4.310941       0.000000
       6       7.280949       0.000000
       7       7.298813       0.000000
       8       9.895742       0.000000
       9      11.473530       0.000000
      10      11.596449       0.000000
      11      13.328095       0.000000
      12      14.815625       0.000000
      13      16.687651       0.000000
      14      18.120599       0.000000
      15      18.279294       0.000000

 16/72 kpoint (Cartesian) = 0.666667 0.666667 1.166667 (3881 pws)
       1      -6.834606       0.027778
       2      -1.249674       0.027778
       3       2.147534       0.027778
       4       3.090559       0.027778
       5       4.480586       0.000000
       6       7.079723       0.000000
       7       7.248097       0.000000
       8       8.776714       0.000000
       9      10.803496       0.000000
      10      11.591506       0.000000
      11      12.446062       0.000000
      12      14.436584       0.000000
      13      17.210660       0.000000
      14      17.968214       0.000000
      15      18.914501       0.000000

 17/72 kpoint (Cartesian) = 0.750000 0.750000 1.083333 (3873 pws)
       1      -7.204686       0.027778
       2      -0.133618       0.027778
       3       2.498156       0.027778
       4       3.379359       0.027778
       5       4.639213       0.000000
       6       6.737417       0.000000
       7       6.805535       0.000000
       8       7.941508       0.000000
       9      10.701573       0.000000
      10      11.413638       0.000000
      11      11.763548       0.000000
      12      13.835940       0.000000
      13      15.726890       0.000000
      14      17.371976       0.000000
      15      19.742538       0.000000

 18/72 kpoint (Cartesian) = 0.833333 0.833333 1.000000 (3867 pws)
       1      -7.456891       0.013889
       2       0.935377       0.013889
       3       3.012577       0.013889
       4       3.592294       0.011122
       5       4.517993       0.000000
       6       6.373648       0.000000
       7       6.416853       0.000000
       8       7.164202       0.000000
       9      10.677054       0.000000
      10      11.078121       0.000000
      11      11.672449       0.000000
      12      14.017421       0.000000
      13      14.556422       0.000000
      14      15.895929       0.000000
      15      18.363194       0.000000

 19/72 kpoint (Cartesian) = 0.000000 0.000000 1.666667 (3899 pws)
       1      -7.268173       0.006944
       2       0.259321       0.006944
       3       2.735868       0.006944
       4       2.735868       0.006944
       5       5.291420       0.000000
       6       5.641149       0.000000
       7       7.689413       0.000000
       8       7.689413       0.000000
       9       9.988689       0.000000
      10      11.490792       0.000000
      11      12.514449       0.000000
      12      14.944786       0.000000
      13      14.944785       0.000000
      14      15.444415       0.000000
      15      20.023924       0.000000

 20/72 kpoint (Cartesian) = 0.583333 0.916667 0.916667 (3902 pws)
       1      -7.015412       0.027778
       2      -0.544956       0.027778
       3       2.339068       0.027778
       4       2.447424       0.027778
       5       5.262376       0.000000
       6       5.873726       0.000000
       7       8.185816       0.000000
       8       8.201246       0.000000
       9      10.034121       0.000000
      10      12.340430       0.000000
      11      12.626683       0.000000
      12      14.694341       0.000000
      13      15.818588       0.000000
      14      16.838581       0.000000
      15      19.830067       0.000000

 21/72 kpoint (Cartesian) = 0.833333 0.833333 0.500000 (3889 pws)
       1      -6.644816       0.027778
       2      -1.490912       0.027778
       3       1.855194       0.027778
       4       2.250233       0.027778
       5       5.251419       0.000000
       6       6.317920       0.000000
       7       8.269349       0.000000
       8       8.458253       0.000000
       9      11.053067       0.000000
      10      12.838139       0.000000
      11      12.975191       0.000000
      12      14.989328       0.000000
      13      17.005307       0.000000
      14      17.820697       0.000000
      15      18.216424       0.000000

 22/72 kpoint (Cartesian) = 0.250000 0.250000 1.416667 (3888 pws)
       1      -6.200155       0.027778
       2      -2.386021       0.027778
       3       1.431755       0.027778
       4       2.164910       0.027778
       5       5.098146       0.000000
       6       6.882113       0.000000
       7       8.426922       0.000000
       8       8.583500       0.000000
       9      12.404799       0.000000
      10      12.773413       0.000000
      11      13.814619       0.000000
      12      14.946606       0.000000
      13      15.792973       0.000000
      14      17.576056       0.000000
      15      19.297110       0.000000

 23/72 kpoint (Cartesian) = 0.333333 0.333333 1.333333 (3896 pws)
       1      -5.807068       0.027778
       2      -3.035134       0.027778
       3       1.132751       0.027778
       4       2.196632       0.027778
       5       4.987240       0.000000
       6       7.127343       0.000000
       7       8.253257       0.000000
       8       9.537723       0.000000
       9      12.281193       0.000000
      10      13.551209       0.000000
      11      13.929602       0.000000
      12      14.231779       0.000000
      13      15.228574       0.000000
      14      18.460472       0.000000
      15      19.728796       0.000000

 24/72 kpoint (Cartesian) = 0.416667 0.416667 1.250000 (3911 pws)
       1      -5.738971       0.027778
       2      -3.136205       0.027778
       3       0.982460       0.027778
       4       2.340344       0.027778
       5       4.966941       0.000000
       6       7.258167       0.000000
       7       8.050090       0.000000
       8      10.584463       0.000000
       9      11.449574       0.000000
      10      12.462499       0.000000
      11      13.267648       0.000000
      12      15.548235       0.000000
      13      16.746003       0.000000
      14      17.157949       0.000000
      15      19.557122       0.000000

 25/72 kpoint (Cartesian) = 0.500000 0.500000 1.166667 (3891 pws)
       1      -6.066691       0.027778
       2      -2.619253       0.027778
       3       1.001837       0.027778
       4       2.580510       0.027778
       5       5.032018       0.000000
       6       7.408484       0.000000
       7       7.824240       0.000000
       8       9.679953       0.000000
       9      11.275475       0.000000
      10      12.155558       0.000000
      11      13.710589       0.000000
      12      15.162688       0.000000
      13      17.001101       0.000000
      14      18.219232       0.000000
      15      18.510509       0.000000

 26/72 kpoint (Cartesian) = 0.583333 0.583333 1.083333 (3883 pws)
       1      -6.514616       0.027778
       2      -1.793806       0.027778
       3       1.225179       0.027778
       4       2.885207       0.027778
       5       5.130131       0.000000
       6       7.434390       0.000000
       7       7.498470       0.000000
       8       8.663654       0.000000
       9      10.559623       0.000000
      10      12.572970       0.000000
      11      13.490545       0.000000
      12      15.003454       0.000000
      13      16.169590       0.000000
      14      17.605962       0.000000
      15      19.949318       0.000000

 27/72 kpoint (Cartesian) = 0.666667 0.666667 1.000000 (3873 pws)
       1      -6.913807       0.013889
       2      -0.908498       0.013889
       3       1.710191       0.013889
       4       3.190575       0.013889
       5       5.089754       0.000000
       6       7.018678       0.000000
       7       7.064843       0.000000
       8       8.328230       0.000000
       9      10.403007       0.000000
      10      12.149803       0.000000
      11      12.441135       0.000000
      12      14.615065       0.000000
      13      16.078497       0.000000
      14      17.666726       0.000000
      15      18.922016       0.000000

 28/72 kpoint (Cartesian) = 1.500000 0.000000 0.000000 (3895 pws)
       1      -6.803890       0.006944
       2      -1.009302       0.006944
       3       2.141908       0.006944
       4       2.141908       0.006944
       5       4.764601       0.000000
       6       5.978601       0.000000
       7       8.902471       0.000000
       8       8.902471       0.000000
       9       9.835715       0.000000
      10      13.091706       0.000000
      11      13.100006       0.000000
      12      15.954684       0.000000
      13      15.954684       0.000000
      14      16.423189       0.000000
      15      19.547975       0.000000

 29/72 kpoint (Cartesian) = 0.416667 0.916667 0.916667 (3903 pws)
       1      -6.468291       0.027778
       2      -1.716514       0.027778
       3       1.728718       0.027778
       4       1.927106       0.027778
       5       4.835999       0.000000
       6       5.921650       0.000000
       7       8.943280       0.000000
       8       9.378118       0.000000
       9      10.887638       0.000000
      10      13.490964       0.000000
      11      13.819942       0.000000
      12      15.940154       0.000000
      13      16.786893       0.000000
      14      17.695664       0.000000
      15      18.108195       0.000000

 30/72 kpoint (Cartesian) = 0.333333 0.833333 0.833333 (3901 pws)
       1      -6.037780       0.027778
       2      -2.477935       0.027778
       3       1.179357       0.027778
       4       1.827365       0.027778
       5       4.990785       0.000000
       6       6.398045       0.000000
       7       8.689217       0.000000
       8       9.477106       0.000000
       9      12.458715       0.000000
      10      13.747925       0.000000
      11      14.250901       0.000000
[...]
       4       2.551080       0.055556
       5       5.105807       0.000000
       6       6.800922       0.000000
       7       8.024874       0.000000
       8       8.815972       0.000000
       9      11.359729       0.000000
      10      12.328726       0.000000
      11      13.610745       0.000000
      12      14.868546       0.000000
      13      16.528682       0.000000
      14      17.797671       0.000000
      15      18.736694       0.000000

 47/72 kpoint (Cartesian) = 0.416667 0.583333 1.250000 (3893 pws)
       1      -5.986021       0.055556
       2      -2.816348       0.055556
       3       1.304543       0.055556
       4       2.371340       0.055556
       5       4.967152       0.000000
       6       6.951652       0.000000
       7       8.014164       0.000000
       8       9.794367       0.000000
       9      12.072351       0.000000
      10      12.556937       0.000000
      11      13.577336       0.000000
      12      14.832551       0.000000
      13      15.892968       0.000000
      14      18.022763       0.000000
      15      18.938800       0.000000

 48/72 kpoint (Cartesian) = 0.333333 0.500000 1.333333 (3890 pws)
       1      -5.773308       0.027778
       2      -3.149353       0.027778
       3       1.244522       0.027778
       4       2.307237       0.027778
       5       4.917370       0.000000
       6       6.964819       0.000000
       7       7.998540       0.000000
       8      10.679231       0.000000
       9      11.577223       0.000000
      10      12.937329       0.000000
      11      13.976452       0.000000
      12      14.041399       0.000000
      13      16.362103       0.000000
      14      16.940869       0.000000
      15      20.577532       0.000000

 49/72 kpoint (Cartesian) = 0.500000 0.833333 1.000000 (3898 pws)
       1      -6.722249       0.027778
       2      -1.239857       0.027778
       3       1.776530       0.027778
       4       2.302645       0.027778
       5       5.339419       0.000000
       6       5.981431       0.000000
       7       8.265007       0.000000
       8       8.778059       0.000000
       9      10.543483       0.000000
      10      12.987981       0.000000
      11      13.123965       0.000000
      12      15.203406       0.000000
      13      16.345099       0.000000
      14      17.821178       0.000000
      15      17.990888       0.000000

 50/72 kpoint (Cartesian) = 0.416667 0.750000 1.083333 (3902 pws)
       1      -6.320815       0.055556
       2      -2.040583       0.055556
       3       1.275237       0.055556
       4       2.086664       0.055556
       5       5.507054       0.000000
       6       6.367597       0.000000
       7       8.077371       0.000000
       8       9.164509       0.000000
       9      11.524471       0.000000
      10      13.329536       0.000000
      11      13.842392       0.000000
      12      15.393794       0.000000
      13      16.434381       0.000000
      14      17.482088       0.000000
      15      18.293213       0.000000

 51/72 kpoint (Cartesian) = 0.333333 0.666667 1.166667 (3898 pws)
       1      -5.869754       0.055556
       2      -2.793196       0.055556
       3       0.903197       0.055556
       4       1.937727       0.055556
       5       5.453068       0.000000
       6       7.018141       0.000000
       7       8.219906       0.000000
       8       9.236011       0.000000
       9      12.536495       0.000000
      10      12.869879       0.000000
      11      14.373709       0.000000
      12      15.008342       0.000000
      13      16.112388       0.000000
      14      17.843487       0.000000
      15      19.882339       0.000000

 52/72 kpoint (Cartesian) = 0.250000 0.583333 1.250000 (3902 pws)
       1      -5.543757       0.055556
       2      -3.263778       0.055556
       3       0.675227       0.055556
       4       1.926154       0.055556
       5       5.438437       0.000000
       6       7.173515       0.000000
       7       8.862979       0.000000
       8       9.487547       0.000000
       9      11.258318       0.000000
      10      13.849341       0.000000
      11      14.158364       0.000000
      12      14.347954       0.000000
      13      16.924253       0.000000
      14      18.939156       0.000000
      15      19.878910       0.000000

 53/72 kpoint (Cartesian) = 0.166667 0.500000 1.333333 (3901 pws)
       1      -5.633346       0.055556
       2      -3.138763       0.055556
       3       0.612537       0.055556
       4       2.055157       0.055556
       5       5.504270       0.000000
       6       7.170705       0.000000
       7       8.781510       0.000000
       8       9.720287       0.000000
       9      11.014649       0.000000
      10      12.472276       0.000000
      11      14.165257       0.000000
      12      15.702255       0.000000
      13      17.344638       0.000000
      14      18.368941       0.000000
      15      18.954560       0.000000

 54/72 kpoint (Cartesian) = 0.416667 0.583333 1.083333 (3893 pws)
       1      -6.039181       0.055556
       2      -2.532690       0.055556
       3       0.751570       0.055556
       4       2.296866       0.055556
       5       5.619647       0.000000
       6       7.068921       0.000000
       7       8.307409       0.000000
       8       9.008126       0.000000
       9      11.325717       0.000000
      10      12.390436       0.000000
      11      14.320226       0.000000
      12      15.385469       0.000000
      13      16.611589       0.000000
      14      18.044536       0.000000
      15      19.346918       0.000000

 55/72 kpoint (Cartesian) = 0.500000 0.666667 1.000000 (3893 pws)
       1      -6.481807       0.027778
       2      -1.781122       0.027778
       3       1.145905       0.027778
       4       2.589332       0.027778
       5       5.654015       0.000000
       6       6.593150       0.000000
       7       8.129633       0.000000
       8       8.473775       0.000000
       9      10.753568       0.000000
      10      13.087092       0.000000
      11      13.403934       0.000000
      12      15.329258       0.000000
      13      15.990695       0.000000
      14      17.393482       0.000000
      15      19.399097       0.000000

 56/72 kpoint (Cartesian) = 0.333333 0.833333 1.000000 (3914 pws)
       1      -6.097851       0.027778
       2      -2.346704       0.027778
       3       1.351308       0.027778
       4       1.707512       0.027778
       5       4.996715       0.000000
       6       5.803273       0.000000
       7       8.953990       0.000000
       8      10.128179       0.000000
       9      11.700309       0.000000
      10      14.133769       0.000000
      11      14.158655       0.000000
      12      16.404794       0.000000
      13      16.451300       0.000000
      14      17.522092       0.000000
      15      17.790685       0.000000

 57/72 kpoint (Cartesian) = 0.250000 0.750000 1.083333 (3908 pws)
       1      -5.648135       0.055556
       2      -2.999292       0.055556
       3       0.880911       0.055556
       4       1.544223       0.055556
       5       5.261121       0.000000
       6       6.295148       0.000000
       7       8.689041       0.000000
       8      10.404460       0.000000
       9      12.739830       0.000000
      10      13.213578       0.000000
      11      15.082020       0.000000
      12      15.651768       0.000000
      13      16.632197       0.000000
      14      17.409464       0.000000
      15      18.895453       0.000000

 58/72 kpoint (Cartesian) = 0.166667 0.666667 1.166667 (3899 pws)
       1      -5.241067       0.055556
       2      -3.512100       0.055556
       3       0.475094       0.055556
       4       1.545694       0.055556
       5       5.336023       0.000000
       6       7.420059       0.000000
       7       8.490676       0.000000
       8      10.180205       0.000000
       9      11.524059       0.000000
      10      13.918874       0.000000
      11      14.500636       0.000000
      12      15.778545       0.000000
      13      17.239170       0.000000
      14      18.746540       0.000000
      15      19.750843       0.000000

 59/72 kpoint (Cartesian) = 0.083333 0.583333 1.250000 (3906 pws)
       1      -5.212480       0.055556
       2      -3.542328       0.055556
       3       0.267416       0.055556
       4       1.698140       0.055556
       5       5.468519       0.000000
       6       8.097552       0.000000
       7       9.043391       0.000000
       8       9.351618       0.000000
       9      10.655420       0.000000
      10      12.531295       0.000000
      11      15.633121       0.000000
      12      16.099314       0.000000
      13      18.141186       0.000000
      14      18.396460       0.000000
      15      19.819388       0.000000

 60/72 kpoint (Cartesian) = 0.000000 0.500000 1.333333 (3909 pws)
       1      -5.592242       0.027778
       2      -3.086165       0.027778
       3       0.339959       0.027778
       4       1.968918       0.027778
       5       5.639250       0.000000
       6       7.843546       0.000000
       7       8.397320       0.000000
       8       9.681436       0.000000
       9      10.966435       0.000000
      10      11.599264       0.000000
      11      15.600288       0.000000
      12      16.035883       0.000000
      13      17.143651       0.000000
      14      18.677472       0.000000
      15      19.175933       0.000000

 61/72 kpoint (Cartesian) = 0.166667 0.833333 1.000000 (3917 pws)
       1      -5.322280       0.027778
       2      -3.416122       0.027778
       3       1.122171       0.027778
       4       1.300633       0.027778
       5       4.869250       0.000000
       6       5.321258       0.000000
       7      10.104775       0.000000
       8      11.332203       0.000000
       9      13.005466       0.000000
      10      13.566691       0.000000
      11      15.150746       0.000000
      12      16.206307       0.000000
      13      16.226010       0.000000
      14      18.182150       0.000000
      15      18.461129       0.000000

 62/72 kpoint (Cartesian) = 0.083333 0.750000 1.083333 (3908 pws)
       1      -4.864705       0.055556
       2      -3.924217       0.055556
       3       0.677089       0.055556
       4       1.259119       0.055556
       5       5.109401       0.000000
       6       6.080392       0.000000
       7       9.833712       0.000000
       8      10.915601       0.000000
       9      12.382877       0.000000
      10      13.903967       0.000000
      11      14.653370       0.000000
      12      16.386863       0.000000
      13      17.558284       0.000000
      14      18.126171       0.000000
      15      19.131146       0.000000

 63/72 kpoint (Cartesian) = 0.000000 0.666667 1.166667 (3894 pws)
       1      -4.804076       0.027778
       2      -3.972186       0.027778
       3       0.316476       0.027778
       4       1.415289       0.027778
       5       5.260135       0.000000
       6       7.406518       0.000000
       7       9.572045       0.000000
       8       9.602579       0.000000
       9      11.620101       0.000000
      10      12.975733       0.000000
      11      15.543668       0.000000
      12      17.084804       0.000000
      13      18.033200       0.000000
      14      18.184635       0.000000
      15      19.349989       0.000000

 64/72 kpoint (Cartesian) = 0.000000 0.833333 1.000000 (3908 pws)
       1      -4.418890       0.013889
       2      -4.418409       0.013889
       3       1.103711       0.013889
       4       1.103728       0.013889
       5       4.979147       0.000000
       6       4.979239       0.000000
       7      11.275562       0.000000
       8      11.275584       0.000000
       9      13.474688       0.000000
      10      13.474825       0.000000
      11      15.178397       0.000000
      12      15.178422       0.000000
      13      17.294233       0.000000
      14      17.294337       0.000000
      15      20.242389       0.000000

 65/72 kpoint (Cartesian) = 0.333333 0.666667 1.000000 (3895 pws)
       1      -5.899026       0.027778
       2      -2.662447       0.027778
       3       0.776125       0.027778
       4       1.808061       0.027778
       5       6.265012       0.000000
       6       6.316736       0.000000
       7       7.807641       0.000000
       8       9.957598       0.000000
       9      11.881481       0.000000
      10      12.683023       0.000000
      11      14.930541       0.000000
      12      15.858795       0.000000
      13      16.343095       0.000000
      14      17.851344       0.000000
      15      18.599805       0.000000

 66/72 kpoint (Cartesian) = 0.250000 0.583333 1.083333 (3902 pws)
       1      -5.451133       0.055556
       2      -3.254939       0.055556
       3       0.484935       0.055556
       4       1.560144       0.055556
       5       6.245572       0.000000
       6       7.004628       0.000000
       7       8.008647       0.000000
       8      10.140484       0.000000
       9      11.301250       0.000000
      10      12.820738       0.000000
      11      15.457884       0.000000
      12      15.645070       0.000000
      13      17.576214       0.000000
      14      17.729809       0.000000
      15      19.134008       0.000000

 67/72 kpoint (Cartesian) = 0.166667 0.500000 1.166667 (3892 pws)
       1      -5.211389       0.027778
       2      -3.548250       0.027778
       3       0.392179       0.027778
       4       1.465805       0.027778
       5       6.229401       0.000000
       6       7.088526       0.000000
       7       9.109464       0.000000
       8       9.216249       0.000000
       9      10.853094       0.000000
      10      14.088912       0.000000
      11      14.383706       0.000000
      12      15.448272       0.000000
      13      18.209390       0.000000
      14      19.103422       0.000000
      15      19.793759       0.000000

 68/72 kpoint (Cartesian) = 0.166667 0.666667 1.000000 (3893 pws)
       1      -5.190504       0.027778
       2      -3.537318       0.027778
       3       0.643037       0.027778
       4       1.168284       0.027778
       5       6.113040       0.000000
       6       6.346092       0.000000
       7       8.399682       0.000000
       8      10.675992       0.000000
       9      12.171695       0.000000
      10      13.233853       0.000000
      11      15.392189       0.000000
      12      16.413995       0.000000
      13      17.172135       0.000000
      14      18.116297       0.000000
      15      18.152663       0.000000

 69/72 kpoint (Cartesian) = 0.083333 0.583333 1.083333 (3899 pws)
       1      -4.823399       0.055556
       2      -3.930705       0.055556
       3       0.430005       0.055556
       4       1.044937       0.055556
       5       6.322270       0.000000
       6       7.451402       0.000000
       7       8.196016       0.000000
       8       9.331280       0.000000
       9      12.159707       0.000000
      10      13.934569       0.000000
      11      14.720155       0.000000
      12      16.431441       0.000000
      13      17.687158       0.000000
      14      19.033670       0.000000
      15      19.517852       0.000000

 70/72 kpoint (Cartesian) = 0.000000 0.500000 1.166667 (3899 pws)
       1      -5.005002       0.027778
       2      -3.734310       0.027778
       3       0.332090       0.027778
       4       1.215648       0.027778
       5       6.473040       0.000000
       6       7.674537       0.000000
       7       8.094618       0.000000
       8       9.145208       0.000000
       9      11.757731       0.000000
      10      13.097712       0.000000
      11      15.531215       0.000000
      12      16.705002       0.000000
      13      17.417728       0.000000
      14      18.061596       0.000000
      15      19.791943       0.000000

 71/72 kpoint (Cartesian) = 0.000000 0.666667 1.000000 (3922 pws)
       1      -4.390660       0.013889
       2      -4.390171       0.013889
       3       0.771024       0.013889
       4       0.771067       0.013889
       5       6.155404       0.000000
       6       6.155491       0.000000
       7       9.558379       0.000000
       8       9.558390       0.000000
       9      13.375304       0.000000
      10      13.375390       0.000000
      11      15.316983       0.000000
      12      15.317005       0.000000
      13      18.957713       0.000000
      14      18.957753       0.000000
      15      19.637375       0.000000

 72/72 kpoint (Cartesian) = 0.000000 0.500000 1.000000 (3884 pws)
       1      -4.376190       0.006944
       2      -4.375698       0.006944
       3       0.630628       0.006944
       4       0.630680       0.006944
       5       7.414594       0.000000
       6       7.414802       0.000000
       7       8.095557       0.000000
       8       8.095676       0.000000
       9      13.368187       0.000000
      10      13.368264       0.000000
      11      15.373970       0.000000
      12      15.373994       0.000000
      13      18.944399       0.000000
      14      18.944452       0.000000
      15      19.541122       0.000000



 --------------------------------------------
 !FINAL_ETOT_IS -218.5349150897550601 eV
 --------------------------------------------






  |CLASS_NAME---------|NAME---------------|TIME(Sec)-----|CALLS----|AVG------|PER%-------
                                      total        191.311        17     11.25    100.00%
                 Run_pw     plane_wave_line         191.31         1    191.31    100.00%
               PW_Basis              gen_pw           0.17         1      0.17      0.09%
                Cell_PW        opt_cells_pw         191.05         1    191.05     99.86%
                    FFT               FFT3D         151.62     71304      0.00     79.25%
              Potential            v_of_rho           0.13         7      0.02      0.07%
               wavefunc             wfcinit           6.51         1      6.51      3.40%
              Hamilt_PW      diagH_subspace          29.32       432      0.07     15.33%
              Hamilt_PW               h_psi         164.12     26350      0.01     85.79%
              Hamilt_PW                vloc         163.35     26350      0.01     85.38%
                   Ions         opt_ions_pw         184.41         1    184.41     96.39%
              Electrons     self_consistent         184.41         1    184.41     96.39%
              Electrons             c_bands         116.05         3     38.68     60.66%
                 Hamilt            diagH_pw         170.89       432      0.40     89.33%
               Diago_CG                diag         147.17       432      0.34     76.93%
              electrons             c_bands          69.15         3     23.05     36.14%
                 Charge            sum_band          12.56         6      2.09      6.56%
                 Charge             mix_rho           0.12         6      0.02      0.06%
 ----------------------------------------------------------------------------------------

 CLASS_NAME---------|NAME---------------|MEMORY(MB)--------
                                         90.5572
             wavefunc                 evc        64.6655
         Charge_Pulay                Rrho         5.5618
         Charge_Pulay               dRrho         4.8666
         Charge_Pulay                drho         4.8666
              Use_FFT              porter         1.3905
               WF_igk                 igk         1.0778
 ----------------------------------------------------------

 Start  Time  : Fri Sep 10 12:19:26 2021
 Finish Time  : Fri Sep 10 12:22:38 2021
 Total  Time  : 0 h 3 mins 12 secs 
