 *********************************************************
 *                                                       *
 *                  WELCOME TO ABACUS v3.0               *
 *                                                       *
 *            'Atomic-orbital Based Ab-initio            *
 *                  Computation at UStc'                 *
 *                                                       *
 *          Website: http://abacus.ustc.edu.cn/          *
 *                                                       *
 *********************************************************
 Mon Apr 17 14:53:45 2023
 MAKE THE DIR         : OUT.blpstest/
Notice: symbol 'Li_locpsp' is not an element symbol!!!! set the covalent radius to be 0.
 UNIFORM GRID DIM     : 27 * 27 * 27
 UNIFORM GRID DIM(BIG): 27 * 27 * 27
func,idXC_GGA_X_PBE 101
func,idXC_GGA_C_PBE 130
 DONE(0.105478   SEC) : SETUP UNITCELL
 DONE(0.158153   SEC) : SYMMETRY
 DONE(0.4943     SEC) : INIT K-POINTS
 ---------------------------------------------------------
 Self-consistent calculations for electrons
 ---------------------------------------------------------
 SPIN    KPOINTS         PROCESSORS  
 1       286             1           
 ---------------------------------------------------------
 Use plane wave basis
 ---------------------------------------------------------
 ELEMENT NATOM       XC          
 Li      1           
 ---------------------------------------------------------
 Initial plane wave basis and FFT box
 ---------------------------------------------------------
 DONE(0.495501   SEC) : INIT BASIS
 DONE(0.495527   SEC) : INIT PHI
 DONE(0.520329   SEC) : LOCAL POTENTIAL
 DONE(0.520361   SEC) : NON-LOCAL POTENTIAL
 START CHARGE      : atomic
 DONE(0.578962   SEC) : INIT POTENTIAL
 DONE(0.579022   SEC) : INIT OPTIMIZATION
 DONE(0.580001   SEC) : INIT KEDF
======================== Running OFDFT ========================
Iter        Etot(Ha)          Theta      PotNorm     deltaE(Ha)
0     -2.628224005719e-01   2.000e-01   5.979e-02   -2.628e-01  
1     -2.706158965386e-01   6.255e-02   1.136e-02   -7.793e-03  
2     -2.706884123383e-01   6.518e-03   3.484e-03   -7.252e-05  
3     -2.706934842018e-01   1.287e-03   1.609e-03   -5.072e-06  
4     -2.706964900073e-01   2.168e-03   1.353e-04   -3.006e-06  
5     -2.706964976208e-01   5.121e-05   3.660e-05   -7.613e-09  
6     -2.706964981453e-01   1.554e-05   2.791e-06   -5.245e-10  

  |CLASS_NAME---------|NAME---------------|TIME(Sec)-----|CALLS----|AVG------|PER%-------
                       total               9.8894         21        0.47      1e+02     %
   Driver              driver_line         9.8828         1         9.9       1e+02     %
   PW_Basis            recip2real          1.6073         1376      0.0012    16        %
   PW_Basis            gathers_scatterp    0.12973        1376      9.4e-05   1.3       %
   Potential           update_from_charge  5.6266         153       0.037     57        %
   Potential           cal_v_eff           5.6249         153       0.037     57        %
   H_Hartree_pw        v_hartree           0.47065        153       0.0031    4.8       %
   PW_Basis            real2recip          2.2211         1680      0.0013    22        %
   PW_Basis            gatherp_scatters    0.15753        1680      9.4e-05   1.6       %
   PotXC               cal_v_eff           5.1231         153       0.033     52        %
   XC_Functional       v_xc                4.642          77        0.06      47        %
   XC_Functional       v_xc_libxc          5.105          153       0.033     52        %
   ESolver_OF          Run                 9.3074         1         9.3       94        %
   KEDF_TF             tf_potential        0.61839        152       0.0041    6.3       %
   KEDF_WT             wt_potential        2.3852         152       0.016     24        %
   KEDF_vW             vw_potential        0.48537        152       0.0032    4.9       %
 ----------------------------------------------------------------------------------------

 START  Time  : Mon Apr 17 14:53:45 2023
 FINISH Time  : Mon Apr 17 14:53:55 2023
 TOTAL  Time  : 10
 SEE INFORMATION IN : OUT.blpstest/
