 *********************************************************
 *                                                       *
 *                  WELCOME TO ABACUS v3.0               *
 *                                                       *
 *            'Atomic-orbital Based Ab-initio            *
 *                  Computation at UStc'                 *
 *                                                       *
 *          Website: http://abacus.ustc.edu.cn/          *
 *                                                       *
 *********************************************************
 Wed Dec 28 16:36:12 2022
 MAKE THE DIR         : OUT.blpstest/
Notice: symbol 'mg_locpsp' is not an element symbol!!!! set the covalent radius to be 0.
Notice: symbol 'al_locpsp' is not an element symbol!!!! set the covalent radius to be 0.
 UNIFORM GRID DIM     : 36 * 36 * 36
 UNIFORM GRID DIM(BIG): 36 * 36 * 36
func,idXC_GGA_X_PBE 101
func,idXC_GGA_C_PBE 130
 DONE(0.188707   SEC) : SETUP UNITCELL
 DONE(0.218991   SEC) : SYMMETRY
 DONE(0.376193   SEC) : INIT K-POINTS
 ---------------------------------------------------------
 Self-consistent calculations for electrons
 ---------------------------------------------------------
 SPIN    KPOINTS         PROCESSORS  
 1       286             1           
 ---------------------------------------------------------
 Use plane wave basis
 ---------------------------------------------------------
 ELEMENT NATOM       XC          
 Mg      1           
 Al      3           
 ---------------------------------------------------------
 Initial plane wave basis and FFT box
 ---------------------------------------------------------
 DONE(0.493926   SEC) : INIT PLANEWAVE
 MEMORY FOR PSI (MB)  : 89.2354
 DONE(0.546589   SEC) : LOCAL POTENTIAL
 DONE(0.546619   SEC) : NON-LOCAL POTENTIAL
 DONE(0.546667   SEC) : INIT BASIS
 START CHARGE      : atomic
 DONE(0.615929   SEC) : INIT SCF
 ITER   ETOT(eV)       EDIFF(eV)      DRHO       TIME(s)    
 CG1    -1.939443e+02  0.000000e+00   5.467e-01  3.483e+01  
 CG2    -1.955901e+02  -1.645799e+00  4.724e-02  1.352e+01  
 CG3    -1.957283e+02  -1.382351e-01  6.702e-03  1.716e+01  
 CG4    -1.957497e+02  -2.133852e-02  5.209e-05  1.634e+01  
 CG5    -1.957503e+02  -6.622340e-04  2.569e-06  1.996e+01  
 CG6    -1.957503e+02  -1.012441e-05  3.489e-08  1.459e+01  
 CG7    -1.957503e+02  -3.076365e-07  3.009e-09  1.824e+01  
 CG8    -1.957503e+02  -1.479743e-08  1.538e-09  1.556e+01  
 CG9    -1.957503e+02  -3.388531e-09  7.404e-13  1.285e+01  

  |CLASS_NAME---------|NAME---------------|TIME(Sec)-----|CALLS----|AVG------|PER%-------
                       total               163.69         17        9.6       1e+02     %
   Driver              driver_line         163.68         1         1.6e+02   1e+02     %
   PW_Basis            setuptransform      0.16557        1         0.17      0.1       %
   ESolver_KS_PW       Run                 163.14         1         1.6e+02   1e+02     %
   Potential           update_from_charge  0.32645        10        0.033     0.2       %
   Potential           cal_v_eff           0.32526        10        0.033     0.2       %
   PotXC               cal_v_eff           0.30416        10        0.03      0.19      %
   XC_Functional       v_xc                103.05         5         21        63        %
   XC_Functional       v_xc_libxc          0.30161        10        0.03      0.18      %
   HSolverPW           solve               162.7          9         18        99        %
   DiagoIterAssist     diagH_subspace      29.667         2574      0.012     18        %
   OperatorPW          hPsi                143.15         96358     0.0015    87        %
   Operator            EkineticPW          0.49329        96358     5.1e-06   0.3       %
   Operator            VeffPW              142.39         96358     0.0015    87        %
   PW_Basis_K          recip2real          82.381         132134    0.00062   50        %
   PW_Basis_K          gathers_scatterp    7.228          132134    5.5e-05   4.4       %
   PW_Basis_K          real2recip          62.661         116950    0.00054   38        %
   PW_Basis_K          gatherp_scatters    1.2405         116950    1.1e-05   0.76      %
   DiagoIterAssist     LAPACK_subspace     0.11763        2574      4.6e-05   0.072     %
   DiagoCG             diag_once           121.23         2574      0.047     74        %
   ElecStatePW         psiToRho            10.697         9         1.2       6.5       %
 ----------------------------------------------------------------------------------------

 START  Time  : Wed Dec 28 16:36:12 2022
 FINISH Time  : Wed Dec 28 16:38:56 2022
 TOTAL  Time  : 1.6e+02
 SEE INFORMATION IN : OUT.blpstest/
