 *********************************************************
 *                                                       *
 *                  WELCOME TO ABACUS v3.0               *
 *                                                       *
 *            'Atomic-orbital Based Ab-initio            *
 *                  Computation at UStc'                 *
 *                                                       *
 *          Website: http://abacus.ustc.edu.cn/          *
 *                                                       *
 *********************************************************
 Wed Apr 26 09:45:03 2023
 MAKE THE DIR         : OUT.oftest/
Notice: symbol 'Li_locpsp' is not an element symbol!!!! set the covalent radius to be 0.
 UNIFORM GRID DIM     : 45 * 45 * 45
 UNIFORM GRID DIM(BIG): 45 * 45 * 45
func,idXC_GGA_X_PBE 101
func,idXC_GGA_C_PBE 130
 DONE(0.288666   SEC) : SETUP UNITCELL
 DONE(0.348089   SEC) : SYMMETRY
 DONE(0.34837    SEC) : INIT K-POINTS
 ---------------------------------------------------------
 Self-consistent calculations for electrons
 ---------------------------------------------------------
 SPIN    KPOINTS         PROCESSORS  
 1       1               1           
 ---------------------------------------------------------
 Use plane wave basis
 ---------------------------------------------------------
 ELEMENT NATOM       XC          
 Li      2           
 ---------------------------------------------------------
 Initial plane wave basis and FFT box
 ---------------------------------------------------------
 DONE(0.407744   SEC) : INIT BASIS
 DONE(0.407784   SEC) : INIT PHI
 DONE(0.535556   SEC) : LOCAL POTENTIAL
 DONE(0.535598   SEC) : NON-LOCAL POTENTIAL
 START CHARGE      : atomic
 DONE(0.844895   SEC) : INIT POTENTIAL
 DONE(0.845383   SEC) : INIT OPTIMIZATION
Default type: double
nnode = 10
nlayer = 3
feg_net_F = 0.540933
 DONE(0.937428   SEC) : INIT KEDF
======================== Running OFDFT ========================
Iter        Etot(Ha)          Theta      PotNorm     deltaE(Ha)
0     -4.924363092715e-01   2.000e-01   8.084e-02   -4.924e-01  
1     -5.122075718559e-01   6.195e-02   2.262e-02   -1.977e-02  
2     -5.123512315111e-01   3.271e-03   1.030e-02   -1.437e-04  
3     -5.123918262703e-01   2.179e-03   8.853e-03   -4.059e-05  
4     -5.124154140338e-01   1.145e-03   5.476e-03   -2.359e-05  
5     -5.124302410053e-01   1.148e-03   5.269e-03   -1.483e-05  
6     -5.124899429926e-01   7.260e-03   4.378e-03   -5.970e-05  
7     -5.124930978087e-01   4.231e-04   8.067e-04   -3.155e-06  
8     -5.124933278694e-01   1.696e-04   4.187e-04   -2.301e-07  
9     -5.124933709256e-01   4.199e-05   2.158e-04   -4.306e-08  

  |CLASS_NAME---------|NAME---------------|TIME(Sec)-----|CALLS----|AVG------|PER%-------
                       total               453.61         21        22        1e+02     %
   Driver              driver_line         453.61         1         4.5e+02   1e+02     %
   PW_Basis            setuptransform      0.24931        1         0.25      0.055     %
   ppcell_vl           init_vloc           0.12757        1         0.13      0.028     %
   Charge              atomic_rho          0.13817        1         0.14      0.03      %
   PW_Basis            recip2real          12.079         3928      0.0031    2.7       %
   PW_Basis            gathers_scatterp    1.1277         3928      0.00029   0.25      %
   Potential           init_pot            0.16498        1         0.16      0.036     %
   Potential           update_from_charge  18.263         197       0.093     4         %
   Potential           cal_v_eff           18.256         197       0.093     4         %
   H_Hartree_pw        v_hartree           1.4334         197       0.0073    0.32      %
   PW_Basis            real2recip          11.876         3928      0.003     2.6       %
   PW_Basis            gatherp_scatters    0.76605        3928      0.0002    0.17      %
   PotXC               cal_v_eff           16.763         197       0.085     3.7       %
   XC_Functional       v_xc                224.15         99        2.3       49        %
   XC_Functional       v_xc_libxc          16.735         197       0.085     3.7       %
   ESolver_OF          Run                 452.67         1         4.5e+02   1e+02     %
   KEDF_vW             vw_potential        1.3876         196       0.0071    0.31      %
 ----------------------------------------------------------------------------------------

 START  Time  : Wed Apr 26 09:45:03 2023
 FINISH Time  : Wed Apr 26 09:52:37 2023
 TOTAL  Time  : 4.5e+02
 SEE INFORMATION IN : OUT.oftest/
