 *********************************************************
 *                                                       *
 *                  WELCOME TO ABACUS v3.0               *
 *                                                       *
 *            'Atomic-orbital Based Ab-initio            *
 *                  Computation at UStc'                 *
 *                                                       *
 *          Website: http://abacus.ustc.edu.cn/          *
 *                                                       *
 *********************************************************
 Wed Mar 22 12:01:26 2023
 MAKE THE DIR         : OUT.blpstest/
Notice: symbol 'al_locpsp' is not an element symbol!!!! set the covalent radius to be 0.
Notice: symbol 'As_locpsp' is not an element symbol!!!! set the covalent radius to be 0.
 UNIFORM GRID DIM     : 36 * 36 * 36
 UNIFORM GRID DIM(BIG): 36 * 36 * 36
func,idXC_GGA_X_PBE 101
func,idXC_GGA_C_PBE 130
 DONE(0.189293   SEC) : SETUP UNITCELL
 DONE(0.221791   SEC) : SYMMETRY
 DONE(0.384422   SEC) : INIT K-POINTS
 ---------------------------------------------------------
 Self-consistent calculations for electrons
 ---------------------------------------------------------
 SPIN    KPOINTS         PROCESSORS  
 1       256             1           
 ---------------------------------------------------------
 Use plane wave basis
 ---------------------------------------------------------
 ELEMENT NATOM       XC          
 Al      1           
 As      1           
 ---------------------------------------------------------
 Initial plane wave basis and FFT box
 ---------------------------------------------------------
 DONE(0.479503   SEC) : INIT PLANEWAVE
 MEMORY FOR PSI (MB)  : 73.3008
 DONE(0.51649    SEC) : LOCAL POTENTIAL
 DONE(0.516525   SEC) : NON-LOCAL POTENTIAL
 DONE(0.516585   SEC) : INIT BASIS
 START CHARGE      : atomic
 DONE(0.587511   SEC) : INIT SCF
 ITER   ETOT(eV)       EDIFF(eV)      DRHO       TIME(s)    
 CG1    -2.239272e+02  0.000000e+00   2.152e+00  3.189e+01  
 CG2    -2.291929e+02  -5.265684e+00  1.110e-01  1.484e+01  
 CG3    -2.295389e+02  -3.460266e-01  5.692e-03  1.314e+01  
 CG4    -2.295497e+02  -1.085879e-02  1.482e-04  1.518e+01  
 CG5    -2.295506e+02  -8.342286e-04  7.197e-06  1.758e+01  
 CG6    -2.295506e+02  -1.997621e-05  1.680e-07  1.575e+01  
 CG7    -2.295506e+02  -6.470962e-07  1.893e-09  1.707e+01  
 CG8    -2.295506e+02  -1.201492e-08  7.511e-10  1.783e+01  

  |CLASS_NAME---------|NAME---------------|TIME(Sec)-----|CALLS----|AVG------|PER%-------
                       total               143.89         17        8.5       1e+02     %
   Driver              driver_line         143.87         1         1.4e+02   1e+02     %
   PW_Basis            setuptransform      0.16516        1         0.17      0.11      %
   ESolver_KS_PW       Run                 143.36         1         1.4e+02   1e+02     %
   Potential           update_from_charge  0.33234        9         0.037     0.23      %
   Potential           cal_v_eff           0.33119        9         0.037     0.23      %
   PotXC               cal_v_eff           0.30895        9         0.034     0.21      %
   XC_Functional       v_xc                79.676         5         16        55        %
   XC_Functional       v_xc_libxc          0.30637        9         0.034     0.21      %
   HSolverPW           solve               142.92         8         18        99        %
   DiagoIterAssist     diagH_subspace      27.105         2048      0.013     19        %
   OperatorPW          hPsi                128.92         74978     0.0017    90        %
   Operator            EkineticPW          0.45365        74978     6.1e-06   0.32      %
   Operator            VeffPW              128.2          74978     0.0017    89        %
   PW_Basis_K          recip2real          69.488         99554     0.0007    48        %
   PW_Basis_K          gathers_scatterp    6.3566         99554     6.4e-05   4.4       %
   PW_Basis_K          real2recip          55.802         91362     0.00061   39        %
   PW_Basis_K          gatherp_scatters    1.3103         91362     1.4e-05   0.91      %
   DiagoIterAssist     LAPACK_subspace     0.13446        2048      6.6e-05   0.093     %
   DiagoCG             diag_once           108.6          2048      0.053     75        %
   ElecStatePW         psiToRho            6.3031         8         0.79      4.4       %
 ----------------------------------------------------------------------------------------

 START  Time  : Wed Mar 22 12:01:26 2023
 FINISH Time  : Wed Mar 22 12:03:50 2023
 TOTAL  Time  : 1.4e+02
 SEE INFORMATION IN : OUT.blpstest/
