                                                                                     
                             WELCOME TO ABACUS                                       
                                                                                     
               'Atomic-orbital Based Ab-initio Computation at UStc'                  
                                                                                     
                     Website: http://abacus.ustc.edu.cn/                             
                                                                                     
    Version: Parallel, in development
    Processor Number is 1
    Start Time is Fri Jul 30 20:07:54 2021
                                                                                     
 ------------------------------------------------------------------------------------

 READING GENERAL INFORMATION
                           global_out_dir = OUT.blpstest/
                           global_in_card = INPUT
                               pseudo_dir = ./
                              pseudo_type = blps
                                    DRANK = 1
                                    DSIZE = 1
                                   DCOLOR = 1
                                    GRANK = 1
                                    GSIZE = 1




 >>>>>>>>>>>>>>>>>>>>>>>>>>>>>>>>>>>>>>>>>>>>>>>>>>>>>>>>>>>>>>>>>>>>>>
 |                                                                    |
 | Reading atom information in unitcell:                              |
 | From the input file and the structure file we know the number of   |
 | different elments in this unitcell, then we list the detail        |
 | information for each element, especially the zeta and polar atomic |
 | orbital number for each element. The total atom number is counted. |
 | We calculate the nearest atom distance for each atom and show the  |
 | Cartesian and Direct coordinates for each atom. We list the file   |
 | address for atomic orbitals. The volume and the lattice vectors    |
 | in real and reciprocal space is also shown.                        |
 |                                                                    |
 <<<<<<<<<<<<<<<<<<<<<<<<<<<<<<<<<<<<<<<<<<<<<<<<<<<<<<<<<<<<<<<<<<<<<<




 READING UNITCELL INFORMATION
                                    ntype = 1
                 atom label for species 1 = Al
                  lattice constant (Bohr) = 5.32908
              lattice constant (Angstrom) = 2.82002

 READING ATOM TYPE 1
                               atom label = Al
                      start magnetization = FALSE
                      L=0, number of zeta = 1
                      L=1, number of zeta = 1
                      L=2, number of zeta = 1
             number of atom for this type = 2

                        TOTAL ATOM NUMBER = 2

 DIRECT COORDINATES
         atom                   x                   y                   z                 mag
     taud_Al1                   0                   0                   0                   0
     taud_Al2            0.666667            0.333333                 0.5                   0


                          Volume (Bohr^3) = 215.068
                             Volume (A^3) = 31.8697

 Lattice vectors: (Cartesian coordinate: in unit of a_0)
                   +1                  +0                  +0
                 -0.5           +0.866025                  +0
                   +0                  +0            +1.64092
 Reciprocal vectors: (Cartesian coordinate: in unit of 2 pi/a_0)
                   +1            +0.57735                  -0
                   -0             +1.1547                  -0
                   +0                  -0           +0.609413




 >>>>>>>>>>>>>>>>>>>>>>>>>>>>>>>>>>>>>>>>>>>>>>>>>>>>>>>>>>>>>>>>>>>>>>
 |                                                                    |
 | Reading pseudopotentials files:                                    |
 | The pseudopotential file is in UPF format. The 'NC' indicates that |
 | the type of pseudopotential is 'norm conserving'. Functional of    |
 | exchange and correlation is decided by 4 given parameters in UPF   |
 | file.  We also read in the 'core correction' if there exists.      |
 | Also we can read the valence electrons number and the maximal      |
 | angular momentum used in this pseudopotential. We also read in the |
 | trail wave function, trail atomic density and local-pseudopotential|
 | on logrithmic grid. The non-local pseudopotential projector is also|
 | read in if there is any.                                           |
 |                                                                    |
 <<<<<<<<<<<<<<<<<<<<<<<<<<<<<<<<<<<<<<<<<<<<<<<<<<<<<<<<<<<<<<<<<<<<<<




                PAO radial cut off (Bohr) = 16

 Read in pseudopotential file is al.lda.lps
                     pseudopotential type = 
                            functional Ex = LDA
                            functional Ec = LDA
                          functional GCEx = NOGX
                          functional GCEc = NOGC
                 nonlocal core correction = 0
                        valence electrons = 3
                                     lmax = 0
                           number of zeta = 0
                     number of projectors = 0
     initial pseudo atomic orbital number = 0
                                   NLOCAL = 18

 SETUP THE ELECTRONS NUMBER
            electron number of element Al = 3
      total electron number of element Al = 6
                           occupied bands = 3
                                   NBANDS = 15
 DONE : SETUP UNITCELL Time : 0.0654011 (SEC)





 >>>>>>>>>>>>>>>>>>>>>>>>>>>>>>>>>>>>>>>>>>>>>>>>>>>>>>>>>>>>>>>>>>>>>>
 |                                                                    |
 | Doing symmetry analysis:                                           |
 | We calculate the norm of 3 vectors and the angles between them,    |
 | the type of Bravais lattice is given. We can judge if the unticell |
 | is a primitive cell. Finally we give the point group operation for |
 | this unitcell. We we use the point group operations to do symmetry |
 | analysis on given k-point mesh and the charge density.             |
 |                                                                    |
 <<<<<<<<<<<<<<<<<<<<<<<<<<<<<<<<<<<<<<<<<<<<<<<<<<<<<<<<<<<<<<<<<<<<<<




 LATTICE VECTORS: (CARTESIAN COORDINATE: IN UNIT OF A0)
                   +1                  +0                  +0
                 -0.5           +0.866025                  +0
                   +0                  +0            +1.64092
                       right hand lattice = 1
                                   NORM_A = 1
                                   NORM_B = 1
                                   NORM_C = 1.64092
                           ALPHA (DEGREE) = 120
                           BETA  (DEGREE) = 90
                           GAMMA (DEGREE) = 90
                             BRAVAIS TYPE = 4
                     BRAVAIS LATTICE NAME = 04. Hexagonal cell
 STANDARD LATTICE VECTORS: (CARTESIAN COORDINATE: IN UNIT OF A0)
                   +1                  +0                  +0
                 -0.5           +0.866025                  +0
                   +0                  +0            +1.64092
                                    IBRAV = 4
                                  BRAVAIS = HEXAGONAL CELL
                       LATTICE CONSTANT A = 5.58871
                                C/A RATIO = 0.663993
                                    ibrav = 4
                        ROTATION MATRICES = 24
              PURE POINT GROUP OPERATIONS = 12
                   SPACE GROUP OPERATIONS = 12
                                       C2 = 3
                                       C3 = 2
                                       C4 = 0
                                       C6 = 0
                                       S1 = 4
                                       S3 = 2
                                       S4 = 0
                                       S6 = 0
                              POINT GROUP = D_3h
 DONE : SYMMETRY Time : 0.118134 (SEC)





 >>>>>>>>>>>>>>>>>>>>>>>>>>>>>>>>>>>>>>>>>>>>>>>>>>>>>>>>>>>>>>>>>>>>>>
 |                                                                    |
 | Setup K-points                                                     |
 | We setup the k-points according to input parameters.               |
 | The reduced k-points are set according to symmetry operations.     |
 | We treat the spin as another set of k-points.                      |
 |                                                                    |
 <<<<<<<<<<<<<<<<<<<<<<<<<<<<<<<<<<<<<<<<<<<<<<<<<<<<<<<<<<<<<<<<<<<<<<





 SETUP K-POINTS
                                    nspin = 1
                   Input type of k points = Monkhorst-Pack(Gamma)
                                   nkstot = 1728
                               nkstot_ibz = 133
      IBZ             DirectX             DirectY             DirectZ              Weight    ibz2bz
        1                   0                   0                   0         0.000578704         0
        2            0.916667           0.0833333                   0          0.00347222         1
        3            0.833333            0.166667                   0          0.00347222         2
        4                0.75                0.25                   0          0.00347222         3
        5            0.666667            0.333333                   0          0.00347222         4
        6            0.583333            0.416667                   0          0.00347222         5
        7                 0.5                 0.5                   0          0.00173611         6
        8            0.916667            0.916667                   0          0.00347222        13
        9            0.916667            0.833333                   0          0.00694444        14
       10            0.916667                0.75                   0          0.00694444        15
       11            0.916667            0.666667                   0          0.00694444        16
       12            0.916667            0.583333                   0          0.00694444        17
       13            0.833333            0.833333                   0          0.00347222        26
       14            0.833333                0.75                   0          0.00694444        27
       15            0.833333            0.666667                   0          0.00694444        28
       16            0.833333            0.583333                   0          0.00347222        29
       17                0.75                0.75                   0          0.00347222        39
       18                0.75            0.666667                   0          0.00694444        40
       19            0.666667            0.666667                   0          0.00115741        52
       20                   0                   0            0.916667          0.00115741       144
       21            0.916667           0.0833333            0.916667          0.00694444       145
       22            0.833333            0.166667            0.916667          0.00694444       146
       23                0.75                0.25            0.916667          0.00694444       147
       24            0.666667            0.333333            0.916667          0.00694444       148
       25            0.583333            0.416667            0.916667          0.00694444       149
       26                 0.5                 0.5            0.916667          0.00347222       150
       27            0.916667            0.916667            0.916667          0.00694444       157
       28            0.916667            0.833333            0.916667           0.0138889       158
       29            0.916667                0.75            0.916667           0.0138889       159
       30            0.916667            0.666667            0.916667           0.0138889       160
       31            0.916667            0.583333            0.916667           0.0138889       161
       32            0.833333            0.833333            0.916667          0.00694444       170
       33            0.833333                0.75            0.916667           0.0138889       171
       34            0.833333            0.666667            0.916667           0.0138889       172
       35            0.833333            0.583333            0.916667          0.00694444       173
       36                0.75                0.75            0.916667          0.00694444       183
       37                0.75            0.666667            0.916667           0.0138889       184
       38            0.666667            0.666667            0.916667          0.00231481       196
       39                   0                   0            0.833333          0.00115741       288
       40            0.916667           0.0833333            0.833333          0.00694444       289
       41            0.833333            0.166667            0.833333          0.00694444       290
       42                0.75                0.25            0.833333          0.00694444       291
       43            0.666667            0.333333            0.833333          0.00694444       292
       44            0.583333            0.416667            0.833333          0.00694444       293
       45                 0.5                 0.5            0.833333          0.00347222       294
       46            0.916667            0.916667            0.833333          0.00694444       301
       47            0.916667            0.833333            0.833333           0.0138889       302
       48            0.916667                0.75            0.833333           0.0138889       303
       49            0.916667            0.666667            0.833333           0.0138889       304
       50            0.916667            0.583333            0.833333           0.0138889       305
       51            0.833333            0.833333            0.833333          0.00694444       314
       52            0.833333                0.75            0.833333           0.0138889       315
       53            0.833333            0.666667            0.833333           0.0138889       316
       54            0.833333            0.583333            0.833333          0.00694444       317
       55                0.75                0.75            0.833333          0.00694444       327
       56                0.75            0.666667            0.833333           0.0138889       328
       57            0.666667            0.666667            0.833333          0.00231481       340
       58                   0                   0                0.75          0.00115741       432
       59            0.916667           0.0833333                0.75          0.00694444       433
       60            0.833333            0.166667                0.75          0.00694444       434
       61                0.75                0.25                0.75          0.00694444       435
       62            0.666667            0.333333                0.75          0.00694444       436
       63            0.583333            0.416667                0.75          0.00694444       437
       64                 0.5                 0.5                0.75          0.00347222       438
       65            0.916667            0.916667                0.75          0.00694444       445
       66            0.916667            0.833333                0.75           0.0138889       446
       67            0.916667                0.75                0.75           0.0138889       447
       68            0.916667            0.666667                0.75           0.0138889       448
       69            0.916667            0.583333                0.75           0.0138889       449
       70            0.833333            0.833333                0.75          0.00694444       458
       71            0.833333                0.75                0.75           0.0138889       459
       72            0.833333            0.666667                0.75           0.0138889       460
       73            0.833333            0.583333                0.75          0.00694444       461
       74                0.75                0.75                0.75          0.00694444       471
       75                0.75            0.666667                0.75           0.0138889       472
       76            0.666667            0.666667                0.75          0.00231481       484
       77                   0                   0            0.666667          0.00115741       576
       78            0.916667           0.0833333            0.666667          0.00694444       577
       79            0.833333            0.166667            0.666667          0.00694444       578
       80                0.75                0.25            0.666667          0.00694444       579
       81            0.666667            0.333333            0.666667          0.00694444       580
       82            0.583333            0.416667            0.666667          0.00694444       581
       83                 0.5                 0.5            0.666667          0.00347222       582
       84            0.916667            0.916667            0.666667          0.00694444       589
       85            0.916667            0.833333            0.666667           0.0138889       590
       86            0.916667                0.75            0.666667           0.0138889       591
       87            0.916667            0.666667            0.666667           0.0138889       592
       88            0.916667            0.583333            0.666667           0.0138889       593
       89            0.833333            0.833333            0.666667          0.00694444       602
       90            0.833333                0.75            0.666667           0.0138889       603
       91            0.833333            0.666667            0.666667           0.0138889       604
       92            0.833333            0.583333            0.666667          0.00694444       605
       93                0.75                0.75            0.666667          0.00694444       615
       94                0.75            0.666667            0.666667           0.0138889       616
       95            0.666667            0.666667            0.666667          0.00231481       628
       96                   0                   0            0.583333          0.00115741       720
       97            0.916667           0.0833333            0.583333          0.00694444       721
       98            0.833333            0.166667            0.583333          0.00694444       722
       99                0.75                0.25            0.583333          0.00694444       723
      100            0.666667            0.333333            0.583333          0.00694444       724
      101            0.583333            0.416667            0.583333          0.00694444       725
      102                 0.5                 0.5            0.583333          0.00347222       726
      103            0.916667            0.916667            0.583333          0.00694444       733
      104            0.916667            0.833333            0.583333           0.0138889       734
      105            0.916667                0.75            0.583333           0.0138889       735
      106            0.916667            0.666667            0.583333           0.0138889       736
      107            0.916667            0.583333            0.583333           0.0138889       737
      108            0.833333            0.833333            0.583333          0.00694444       746
      109            0.833333                0.75            0.583333           0.0138889       747
      110            0.833333            0.666667            0.583333           0.0138889       748
      111            0.833333            0.583333            0.583333          0.00694444       749
      112                0.75                0.75            0.583333          0.00694444       759
      113                0.75            0.666667            0.583333           0.0138889       760
      114            0.666667            0.666667            0.583333          0.00231481       772
      115                   0                   0                 0.5         0.000578704       864
      116            0.916667           0.0833333                 0.5          0.00347222       865
      117            0.833333            0.166667                 0.5          0.00347222       866
      118                0.75                0.25                 0.5          0.00347222       867
      119            0.666667            0.333333                 0.5          0.00347222       868
      120            0.583333            0.416667                 0.5          0.00347222       869
      121                 0.5                 0.5                 0.5          0.00173611       870
      122            0.916667            0.916667                 0.5          0.00347222       877
      123            0.916667            0.833333                 0.5          0.00694444       878
      124            0.916667                0.75                 0.5          0.00694444       879
      125            0.916667            0.666667                 0.5          0.00694444       880
      126            0.916667            0.583333                 0.5          0.00694444       881
      127            0.833333            0.833333                 0.5          0.00347222       890
      128            0.833333                0.75                 0.5          0.00694444       891
      129            0.833333            0.666667                 0.5          0.00694444       892
      130            0.833333            0.583333                 0.5          0.00347222       893
      131                0.75                0.75                 0.5          0.00347222       903
      132                0.75            0.666667                 0.5          0.00694444       904
      133            0.666667            0.666667                 0.5          0.00115741       916
                               nkstot now = 133

  KPOINTS            DIRECT_X            DIRECT_Y            DIRECT_Z              WEIGHT
        1                   0                   0                   0         0.000578704
        2            0.916667           0.0833333                   0          0.00347222
        3            0.833333            0.166667                   0          0.00347222
        4                0.75                0.25                   0          0.00347222
        5            0.666667            0.333333                   0          0.00347222
        6            0.583333            0.416667                   0          0.00347222
        7                 0.5                 0.5                   0          0.00173611
        8            0.916667            0.916667                   0          0.00347222
        9            0.916667            0.833333                   0          0.00694444
       10            0.916667                0.75                   0          0.00694444
       11            0.916667            0.666667                   0          0.00694444
       12            0.916667            0.583333                   0          0.00694444
       13            0.833333            0.833333                   0          0.00347222
       14            0.833333                0.75                   0          0.00694444
       15            0.833333            0.666667                   0          0.00694444
       16            0.833333            0.583333                   0          0.00347222
       17                0.75                0.75                   0          0.00347222
       18                0.75            0.666667                   0          0.00694444
       19            0.666667            0.666667                   0          0.00115741
       20                   0                   0            0.916667          0.00115741
       21            0.916667           0.0833333            0.916667          0.00694444
       22            0.833333            0.166667            0.916667          0.00694444
       23                0.75                0.25            0.916667          0.00694444
       24            0.666667            0.333333            0.916667          0.00694444
       25            0.583333            0.416667            0.916667          0.00694444
       26                 0.5                 0.5            0.916667          0.00347222
       27            0.916667            0.916667            0.916667          0.00694444
       28            0.916667            0.833333            0.916667           0.0138889
       29            0.916667                0.75            0.916667           0.0138889
       30            0.916667            0.666667            0.916667           0.0138889
       31            0.916667            0.583333            0.916667           0.0138889
       32            0.833333            0.833333            0.916667          0.00694444
       33            0.833333                0.75            0.916667           0.0138889
       34            0.833333            0.666667            0.916667           0.0138889
       35            0.833333            0.583333            0.916667          0.00694444
       36                0.75                0.75            0.916667          0.00694444
       37                0.75            0.666667            0.916667           0.0138889
       38            0.666667            0.666667            0.916667          0.00231481
       39                   0                   0            0.833333          0.00115741
       40            0.916667           0.0833333            0.833333          0.00694444
       41            0.833333            0.166667            0.833333          0.00694444
       42                0.75                0.25            0.833333          0.00694444
       43            0.666667            0.333333            0.833333          0.00694444
       44            0.583333            0.416667            0.833333          0.00694444
       45                 0.5                 0.5            0.833333          0.00347222
       46            0.916667            0.916667            0.833333          0.00694444
       47            0.916667            0.833333            0.833333           0.0138889
       48            0.916667                0.75            0.833333           0.0138889
       49            0.916667            0.666667            0.833333           0.0138889
       50            0.916667            0.583333            0.833333           0.0138889
       51            0.833333            0.833333            0.833333          0.00694444
       52            0.833333                0.75            0.833333           0.0138889
       53            0.833333            0.666667            0.833333           0.0138889
       54            0.833333            0.583333            0.833333          0.00694444
       55                0.75                0.75            0.833333          0.00694444
       56                0.75            0.666667            0.833333           0.0138889
       57            0.666667            0.666667            0.833333          0.00231481
       58                   0                   0                0.75          0.00115741
       59            0.916667           0.0833333                0.75          0.00694444
       60            0.833333            0.166667                0.75          0.00694444
       61                0.75                0.25                0.75          0.00694444
       62            0.666667            0.333333                0.75          0.00694444
       63            0.583333            0.416667                0.75          0.00694444
       64                 0.5                 0.5                0.75          0.00347222
       65            0.916667            0.916667                0.75          0.00694444
       66            0.916667            0.833333                0.75           0.0138889
       67            0.916667                0.75                0.75           0.0138889
       68            0.916667            0.666667                0.75           0.0138889
       69            0.916667            0.583333                0.75           0.0138889
       70            0.833333            0.833333                0.75          0.00694444
       71            0.833333                0.75                0.75           0.0138889
       72            0.833333            0.666667                0.75           0.0138889
       73            0.833333            0.583333                0.75          0.00694444
       74                0.75                0.75                0.75          0.00694444
       75                0.75            0.666667                0.75           0.0138889
       76            0.666667            0.666667                0.75          0.00231481
       77                   0                   0            0.666667          0.00115741
       78            0.916667           0.0833333            0.666667          0.00694444
       79            0.833333            0.166667            0.666667          0.00694444
       80                0.75                0.25            0.666667          0.00694444
       81            0.666667            0.333333            0.666667          0.00694444
       82            0.583333            0.416667            0.666667          0.00694444
       83                 0.5                 0.5            0.666667          0.00347222
       84            0.916667            0.916667            0.666667          0.00694444
       85            0.916667            0.833333            0.666667           0.0138889
       86            0.916667                0.75            0.666667           0.0138889
       87            0.916667            0.666667            0.666667           0.0138889
       88            0.916667            0.583333            0.666667           0.0138889
       89            0.833333            0.833333            0.666667          0.00694444
       90            0.833333                0.75            0.666667           0.0138889
       91            0.833333            0.666667            0.666667           0.0138889
       92            0.833333            0.583333            0.666667          0.00694444
       93                0.75                0.75            0.666667          0.00694444
       94                0.75            0.666667            0.666667           0.0138889
       95            0.666667            0.666667            0.666667          0.00231481
       96                   0                   0            0.583333          0.00115741
       97            0.916667           0.0833333            0.583333          0.00694444
       98            0.833333            0.166667            0.583333          0.00694444
       99                0.75                0.25            0.583333          0.00694444
      100            0.666667            0.333333            0.583333          0.00694444
      101            0.583333            0.416667            0.583333          0.00694444
      102                 0.5                 0.5            0.583333          0.00347222
      103            0.916667            0.916667            0.583333          0.00694444
      104            0.916667            0.833333            0.583333           0.0138889
      105            0.916667                0.75            0.583333           0.0138889
      106            0.916667            0.666667            0.583333           0.0138889
      107            0.916667            0.583333            0.583333           0.0138889
      108            0.833333            0.833333            0.583333          0.00694444
      109            0.833333                0.75            0.583333           0.0138889
      110            0.833333            0.666667            0.583333           0.0138889
      111            0.833333            0.583333            0.583333          0.00694444
      112                0.75                0.75            0.583333          0.00694444
      113                0.75            0.666667            0.583333           0.0138889
      114            0.666667            0.666667            0.583333          0.00231481
      115                   0                   0                 0.5         0.000578704
      116            0.916667           0.0833333                 0.5          0.00347222
      117            0.833333            0.166667                 0.5          0.00347222
      118                0.75                0.25                 0.5          0.00347222
      119            0.666667            0.333333                 0.5          0.00347222
      120            0.583333            0.416667                 0.5          0.00347222
      121                 0.5                 0.5                 0.5          0.00173611
      122            0.916667            0.916667                 0.5          0.00347222
      123            0.916667            0.833333                 0.5          0.00694444
      124            0.916667                0.75                 0.5          0.00694444
      125            0.916667            0.666667                 0.5          0.00694444
      126            0.916667            0.583333                 0.5          0.00694444
      127            0.833333            0.833333                 0.5          0.00347222
      128            0.833333                0.75                 0.5          0.00694444
      129            0.833333            0.666667                 0.5          0.00694444
      130            0.833333            0.583333                 0.5          0.00347222
      131                0.75                0.75                 0.5          0.00347222
      132                0.75            0.666667                 0.5          0.00694444
      133            0.666667            0.666667                 0.5          0.00115741

           k-point number in this process = 133
       minimum distributed K point number = 133

  KPOINTS         CARTESIAN_X         CARTESIAN_Y         CARTESIAN_Z              WEIGHT
        1                   0                   0                   0          0.00115741
        2            0.916667            0.625463                   0          0.00694444
        3            0.833333            0.673575                   0          0.00694444
        4                0.75            0.721688                   0          0.00694444
        5            0.666667              0.7698                   0          0.00694444
        6            0.583333            0.817913                   0          0.00694444
        7                 0.5            0.866025                   0          0.00347222
        8            0.916667             1.58771                   0          0.00694444
        9            0.916667             1.49149                   0           0.0138889
       10            0.916667             1.39526                   0           0.0138889
       11            0.916667             1.29904                   0           0.0138889
       12            0.916667             1.20281                   0           0.0138889
       13            0.833333             1.44338                   0          0.00694444
       14            0.833333             1.34715                   0           0.0138889
       15            0.833333             1.25093                   0           0.0138889
       16            0.833333              1.1547                   0          0.00694444
       17                0.75             1.29904                   0          0.00694444
       18                0.75             1.20281                   0           0.0138889
       19            0.666667              1.1547                   0          0.00231481
       20                   0                   0            0.558629          0.00231481
       21            0.916667            0.625463            0.558629           0.0138889
       22            0.833333            0.673575            0.558629           0.0138889
       23                0.75            0.721688            0.558629           0.0138889
       24            0.666667              0.7698            0.558629           0.0138889
       25            0.583333            0.817913            0.558629           0.0138889
       26                 0.5            0.866025            0.558629          0.00694444
       27            0.916667             1.58771            0.558629           0.0138889
       28            0.916667             1.49149            0.558629           0.0277778
       29            0.916667             1.39526            0.558629           0.0277778
       30            0.916667             1.29904            0.558629           0.0277778
       31            0.916667             1.20281            0.558629           0.0277778
       32            0.833333             1.44338            0.558629           0.0138889
       33            0.833333             1.34715            0.558629           0.0277778
       34            0.833333             1.25093            0.558629           0.0277778
       35            0.833333              1.1547            0.558629           0.0138889
       36                0.75             1.29904            0.558629           0.0138889
       37                0.75             1.20281            0.558629           0.0277778
       38            0.666667              1.1547            0.558629          0.00462963
       39                   0                   0            0.507844          0.00231481
       40            0.916667            0.625463            0.507844           0.0138889
       41            0.833333            0.673575            0.507844           0.0138889
       42                0.75            0.721688            0.507844           0.0138889
       43            0.666667              0.7698            0.507844           0.0138889
       44            0.583333            0.817913            0.507844           0.0138889
       45                 0.5            0.866025            0.507844          0.00694444
       46            0.916667             1.58771            0.507844           0.0138889
       47            0.916667             1.49149            0.507844           0.0277778
       48            0.916667             1.39526            0.507844           0.0277778
       49            0.916667             1.29904            0.507844           0.0277778
       50            0.916667             1.20281            0.507844           0.0277778
       51            0.833333             1.44338            0.507844           0.0138889
       52            0.833333             1.34715            0.507844           0.0277778
       53            0.833333             1.25093            0.507844           0.0277778
       54            0.833333              1.1547            0.507844           0.0138889
       55                0.75             1.29904            0.507844           0.0138889
       56                0.75             1.20281            0.507844           0.0277778
       57            0.666667              1.1547            0.507844          0.00462963
       58                   0                   0             0.45706          0.00231481
       59            0.916667            0.625463             0.45706           0.0138889
       60            0.833333            0.673575             0.45706           0.0138889
       61                0.75            0.721688             0.45706           0.0138889
       62            0.666667              0.7698             0.45706           0.0138889
       63            0.583333            0.817913             0.45706           0.0138889
       64                 0.5            0.866025             0.45706          0.00694444
       65            0.916667             1.58771             0.45706           0.0138889
       66            0.916667             1.49149             0.45706           0.0277778
       67            0.916667             1.39526             0.45706           0.0277778
       68            0.916667             1.29904             0.45706           0.0277778
       69            0.916667             1.20281             0.45706           0.0277778
       70            0.833333             1.44338             0.45706           0.0138889
       71            0.833333             1.34715             0.45706           0.0277778
       72            0.833333             1.25093             0.45706           0.0277778
       73            0.833333              1.1547             0.45706           0.0138889
       74                0.75             1.29904             0.45706           0.0138889
       75                0.75             1.20281             0.45706           0.0277778
       76            0.666667              1.1547             0.45706          0.00462963
       77                   0                   0            0.406275          0.00231481
       78            0.916667            0.625463            0.406275           0.0138889
       79            0.833333            0.673575            0.406275           0.0138889
       80                0.75            0.721688            0.406275           0.0138889
       81            0.666667              0.7698            0.406275           0.0138889
       82            0.583333            0.817913            0.406275           0.0138889
       83                 0.5            0.866025            0.406275          0.00694444
       84            0.916667             1.58771            0.406275           0.0138889
       85            0.916667             1.49149            0.406275           0.0277778
       86            0.916667             1.39526            0.406275           0.0277778
       87            0.916667             1.29904            0.406275           0.0277778
       88            0.916667             1.20281            0.406275           0.0277778
       89            0.833333             1.44338            0.406275           0.0138889
       90            0.833333             1.34715            0.406275           0.0277778
       91            0.833333             1.25093            0.406275           0.0277778
       92            0.833333              1.1547            0.406275           0.0138889
       93                0.75             1.29904            0.406275           0.0138889
       94                0.75             1.20281            0.406275           0.0277778
       95            0.666667              1.1547            0.406275          0.00462963
       96                   0                   0            0.355491          0.00231481
       97            0.916667            0.625463            0.355491           0.0138889
       98            0.833333            0.673575            0.355491           0.0138889
       99                0.75            0.721688            0.355491           0.0138889
      100            0.666667              0.7698            0.355491           0.0138889
      101            0.583333            0.817913            0.355491           0.0138889
      102                 0.5            0.866025            0.355491          0.00694444
      103            0.916667             1.58771            0.355491           0.0138889
      104            0.916667             1.49149            0.355491           0.0277778
      105            0.916667             1.39526            0.355491           0.0277778
      106            0.916667             1.29904            0.355491           0.0277778
      107            0.916667             1.20281            0.355491           0.0277778
      108            0.833333             1.44338            0.355491           0.0138889
      109            0.833333             1.34715            0.355491           0.0277778
      110            0.833333             1.25093            0.355491           0.0277778
      111            0.833333              1.1547            0.355491           0.0138889
      112                0.75             1.29904            0.355491           0.0138889
      113                0.75             1.20281            0.355491           0.0277778
      114            0.666667              1.1547            0.355491          0.00462963
      115                   0                   0            0.304706          0.00115741
      116            0.916667            0.625463            0.304706          0.00694444
      117            0.833333            0.673575            0.304706          0.00694444
      118                0.75            0.721688            0.304706          0.00694444
      119            0.666667              0.7698            0.304706          0.00694444
      120            0.583333            0.817913            0.304706          0.00694444
      121                 0.5            0.866025            0.304706          0.00347222
      122            0.916667             1.58771            0.304706          0.00694444
      123            0.916667             1.49149            0.304706           0.0138889
      124            0.916667             1.39526            0.304706           0.0138889
      125            0.916667             1.29904            0.304706           0.0138889
      126            0.916667             1.20281            0.304706           0.0138889
      127            0.833333             1.44338            0.304706          0.00694444
      128            0.833333             1.34715            0.304706           0.0138889
      129            0.833333             1.25093            0.304706           0.0138889
      130            0.833333              1.1547            0.304706          0.00694444
      131                0.75             1.29904            0.304706          0.00694444
      132                0.75             1.20281            0.304706           0.0138889
      133            0.666667              1.1547            0.304706          0.00231481

  KPOINTS            DIRECT_X            DIRECT_Y            DIRECT_Z              WEIGHT
        1                   0                   0                   0          0.00115741
        2            0.916667           0.0833333                   0          0.00694444
        3            0.833333            0.166667                   0          0.00694444
        4                0.75                0.25                   0          0.00694444
        5            0.666667            0.333333                   0          0.00694444
        6            0.583333            0.416667                   0          0.00694444
        7                 0.5                 0.5                   0          0.00347222
        8            0.916667            0.916667                   0          0.00694444
        9            0.916667            0.833333                   0           0.0138889
       10            0.916667                0.75                   0           0.0138889
       11            0.916667            0.666667                   0           0.0138889
       12            0.916667            0.583333                   0           0.0138889
       13            0.833333            0.833333                   0          0.00694444
       14            0.833333                0.75                   0           0.0138889
       15            0.833333            0.666667                   0           0.0138889
       16            0.833333            0.583333                   0          0.00694444
       17                0.75                0.75                   0          0.00694444
       18                0.75            0.666667                   0           0.0138889
       19            0.666667            0.666667                   0          0.00231481
       20                   0                   0            0.916667          0.00231481
       21            0.916667           0.0833333            0.916667           0.0138889
       22            0.833333            0.166667            0.916667           0.0138889
       23                0.75                0.25            0.916667           0.0138889
       24            0.666667            0.333333            0.916667           0.0138889
       25            0.583333            0.416667            0.916667           0.0138889
       26                 0.5                 0.5            0.916667          0.00694444
       27            0.916667            0.916667            0.916667           0.0138889
       28            0.916667            0.833333            0.916667           0.0277778
       29            0.916667                0.75            0.916667           0.0277778
       30            0.916667            0.666667            0.916667           0.0277778
       31            0.916667            0.583333            0.916667           0.0277778
       32            0.833333            0.833333            0.916667           0.0138889
       33            0.833333                0.75            0.916667           0.0277778
       34            0.833333            0.666667            0.916667           0.0277778
       35            0.833333            0.583333            0.916667           0.0138889
       36                0.75                0.75            0.916667           0.0138889
       37                0.75            0.666667            0.916667           0.0277778
       38            0.666667            0.666667            0.916667          0.00462963
       39                   0                   0            0.833333          0.00231481
       40            0.916667           0.0833333            0.833333           0.0138889
       41            0.833333            0.166667            0.833333           0.0138889
       42                0.75                0.25            0.833333           0.0138889
       43            0.666667            0.333333            0.833333           0.0138889
       44            0.583333            0.416667            0.833333           0.0138889
       45                 0.5                 0.5            0.833333          0.00694444
       46            0.916667            0.916667            0.833333           0.0138889
       47            0.916667            0.833333            0.833333           0.0277778
       48            0.916667                0.75            0.833333           0.0277778
       49            0.916667            0.666667            0.833333           0.0277778
       50            0.916667            0.583333            0.833333           0.0277778
       51            0.833333            0.833333            0.833333           0.0138889
       52            0.833333                0.75            0.833333           0.0277778
       53            0.833333            0.666667            0.833333           0.0277778
       54            0.833333            0.583333            0.833333           0.0138889
       55                0.75                0.75            0.833333           0.0138889
       56                0.75            0.666667            0.833333           0.0277778
       57            0.666667            0.666667            0.833333          0.00462963
       58                   0                   0                0.75          0.00231481
       59            0.916667           0.0833333                0.75           0.0138889
       60            0.833333            0.166667                0.75           0.0138889
       61                0.75                0.25                0.75           0.0138889
       62            0.666667            0.333333                0.75           0.0138889
       63            0.583333            0.416667                0.75           0.0138889
       64                 0.5                 0.5                0.75          0.00694444
       65            0.916667            0.916667                0.75           0.0138889
       66            0.916667            0.833333                0.75           0.0277778
       67            0.916667                0.75                0.75           0.0277778
       68            0.916667            0.666667                0.75           0.0277778
       69            0.916667            0.583333                0.75           0.0277778
       70            0.833333            0.833333                0.75           0.0138889
       71            0.833333                0.75                0.75           0.0277778
       72            0.833333            0.666667                0.75           0.0277778
       73            0.833333            0.583333                0.75           0.0138889
       74                0.75                0.75                0.75           0.0138889
       75                0.75            0.666667                0.75           0.0277778
       76            0.666667            0.666667                0.75          0.00462963
       77                   0                   0            0.666667          0.00231481
       78            0.916667           0.0833333            0.666667           0.0138889
       79            0.833333            0.166667            0.666667           0.0138889
       80                0.75                0.25            0.666667           0.0138889
       81            0.666667            0.333333            0.666667           0.0138889
       82            0.583333            0.416667            0.666667           0.0138889
       83                 0.5                 0.5            0.666667          0.00694444
       84            0.916667            0.916667            0.666667           0.0138889
       85            0.916667            0.833333            0.666667           0.0277778
       86            0.916667                0.75            0.666667           0.0277778
       87            0.916667            0.666667            0.666667           0.0277778
       88            0.916667            0.583333            0.666667           0.0277778
       89            0.833333            0.833333            0.666667           0.0138889
       90            0.833333                0.75            0.666667           0.0277778
       91            0.833333            0.666667            0.666667           0.0277778
       92            0.833333            0.583333            0.666667           0.0138889
       93                0.75                0.75            0.666667           0.0138889
       94                0.75            0.666667            0.666667           0.0277778
       95            0.666667            0.666667            0.666667          0.00462963
       96                   0                   0            0.583333          0.00231481
       97            0.916667           0.0833333            0.583333           0.0138889
       98            0.833333            0.166667            0.583333           0.0138889
       99                0.75                0.25            0.583333           0.0138889
      100            0.666667            0.333333            0.583333           0.0138889
      101            0.583333            0.416667            0.583333           0.0138889
      102                 0.5                 0.5            0.583333          0.00694444
      103            0.916667            0.916667            0.583333           0.0138889
      104            0.916667            0.833333            0.583333           0.0277778
      105            0.916667                0.75            0.583333           0.0277778
      106            0.916667            0.666667            0.583333           0.0277778
      107            0.916667            0.583333            0.583333           0.0277778
      108            0.833333            0.833333            0.583333           0.0138889
      109            0.833333                0.75            0.583333           0.0277778
      110            0.833333            0.666667            0.583333           0.0277778
      111            0.833333            0.583333            0.583333           0.0138889
      112                0.75                0.75            0.583333           0.0138889
      113                0.75            0.666667            0.583333           0.0277778
      114            0.666667            0.666667            0.583333          0.00462963
      115                   0                   0                 0.5          0.00115741
      116            0.916667           0.0833333                 0.5          0.00694444
      117            0.833333            0.166667                 0.5          0.00694444
      118                0.75                0.25                 0.5          0.00694444
      119            0.666667            0.333333                 0.5          0.00694444
      120            0.583333            0.416667                 0.5          0.00694444
      121                 0.5                 0.5                 0.5          0.00347222
      122            0.916667            0.916667                 0.5          0.00694444
      123            0.916667            0.833333                 0.5           0.0138889
      124            0.916667                0.75                 0.5           0.0138889
      125            0.916667            0.666667                 0.5           0.0138889
      126            0.916667            0.583333                 0.5           0.0138889
      127            0.833333            0.833333                 0.5          0.00694444
      128            0.833333                0.75                 0.5           0.0138889
      129            0.833333            0.666667                 0.5           0.0138889
      130            0.833333            0.583333                 0.5          0.00694444
      131                0.75                0.75                 0.5          0.00694444
      132                0.75            0.666667                 0.5           0.0138889
      133            0.666667            0.666667                 0.5          0.00231481
 DONE : INIT K-POINTS Time : 0.130922 (SEC)





 >>>>>>>>>>>>>>>>>>>>>>>>>>>>>>>>>>>>>>>>>>>>>>>>>>>>>>>>>>>>>>>>>>>>>>
 |                                                                    |
 | Setup plane waves:                                                 |
 | Use the energy cutoff and the lattice vectors to generate the      |
 | dimensions of FFT grid. The number of FFT grid on each processor   |
 | is 'nrxx'. The number of plane wave basis in reciprocal space is   |
 | different for charege/potential and wave functions. We also set    |
 | the 'sticks' for the parallel of FFT.                              |
 |                                                                    |
 <<<<<<<<<<<<<<<<<<<<<<<<<<<<<<<<<<<<<<<<<<<<<<<<<<<<<<<<<<<<<<<<<<<<<<





 SETUP THE PLANE WAVE BASIS
     energy cutoff for wavefunc (unit:Ry) = 60
            [fft grid for wave functions] = 30, 30, 45
          [fft grid for charge/potential] = 30, 30, 45
                      [fft grid division] = 1, 1, 1
      [big fft grid for charge/potential] = 30, 30, 45
                                     nbxx = 40500
                                     nrxx = 40500

 SETUP PLANE WAVES FOR CHARGE/POTENTIAL
                    number of plane waves = 13429
                         number of sticks = 475

 SETUP PLANE WAVES FOR WAVE FUNCTIONS
                    number of plane waves = 3669
                         number of sticks = 199

 PARALLEL PW FOR CHARGE/POTENTIAL
     PROC   COLUMNS(POT)             PW
        1            475          13429
 --------------- sum -------------------
        1            475          13429

 PARALLEL PW FOR WAVE FUNCTIONS
     PROC     COLUMNS(W)             PW
        1            199           3669
 --------------- sum -------------------
        1            199           3669

 SETUP COORDINATES OF PLANE WAVES
              number of total plane waves = 13429

 SETUP COORDINATES OF PLANE WAVES
                            number of |g| = 717
                                  max |g| = 172.371
                                  min |g| = 0
 DONE : INIT PLANEWAVE Time : 0.217184 (SEC)

                                     npwx = 1737

 SETUP NONLOCAL PSEUDOPOTENTIALS IN PLANE WAVE BASIS
 Al non-local projectors:
      TOTAL NUMBER OF NONLOCAL PROJECTORS = 0

 nhm = 0, not allocate some matrix. DONE : LOCAL POTENTIAL Time : 0.348877 (SEC)


 Init Non-Local PseudoPotential table : 
 Init Non-Local-Pseudopotential done.
 DONE : NON-LOCAL POTENTIAL Time : 0.348931 (SEC)

                                start_pot = atomic
 DONE : INIT POTENTIAL Time : 0.452049 (SEC)


 Make real space PAO into reciprocal space.
       max mesh points in Pseudopotential = 1601
     dq(describe PAO in reciprocal space) = 0.01
                                    max q = 934

 number of pseudo atomic orbitals for Al is 0
 DONE : INIT BASIS Time : 4.53836 (SEC)

 -------------------------------------------
 -------------------------------------------

 PW ALGORITHM --------------- ION=   1  ELEC=   1--------------------------------
  K-point    CG iter num      Time(Sec)
        1       7.200000       0.225376
        2       7.533333       0.232224
        3       6.333333       0.200910
        4       8.000000       0.248721
        5       7.133333       0.227019
        6       6.600000       0.213309
        7       6.000000       0.197214
        8       7.200000       0.230934
        9       7.600000       0.242068
       10       7.000000       0.220309
       11       6.200000       0.197105
       12       7.200000       0.229121
       13       6.733333       0.215647
       14       7.666667       0.243614
       15       7.666667       0.242539
       16       6.200000       0.201891
       17       6.800000       0.218520
       18       7.400000       0.235795
       19       6.000000       0.196233
       20       7.733333       0.245517
       21       8.000000       0.252027
       22       7.466667       0.236649
       23       7.933333       0.251710
       24       7.466667       0.237461
       25       7.533333       0.239032
       26       7.600000       0.241627
       27       8.200000       0.258378
       28       7.933333       0.251442
       29       7.800000       0.247426
       30       7.133333       0.228913
       31       7.466667       0.236164
       32       6.933333       0.221886
       33       8.800000       0.276675
       34       7.333333       0.234088
       35       7.466667       0.238091
       36       7.266667       0.231807
       37       8.533333       0.267787
       38       6.933333       0.222430
       39       7.933333       0.250535
       40       8.133333       0.256287
       41       7.933333       0.252302
       42       7.866667       0.249064
       43       7.666667       0.244271
       44       7.466667       0.237379
       45       7.333333       0.233274
       46       8.400000       0.264307
       47       8.066667       0.254669
       48       8.066667       0.255180
       49       7.866667       0.248599
       50       7.933333       0.252372
       51       7.866667       0.250242
       52       8.066667       0.254167
       53       7.666667       0.244509
       54       7.533333       0.240218
       55       7.133333       0.227655
       56       7.533333       0.238437
       57       6.933333       0.223875
       58       6.733333       0.218324
       59       7.933333       0.251514
       60       7.266667       0.233889
       61       7.666667       0.245046
       62       7.600000       0.242465
       63       7.000000       0.225468
       64       7.200000       0.231241
       65       7.800000       0.248022
       66       7.600000       0.242306
       67       7.466667       0.239487
       68       7.666667       0.244634
       69       8.266667       0.260907
       70       7.533333       0.241625
       71       7.666667       0.239936
       72       7.866667       0.246500
       73       6.800000       0.219382
       74       7.533333       0.240059
       75       8.133333       0.256845
       76       6.666667       0.216081
       77       7.533333       0.240199
       78       7.933333       0.251921
       79       8.666667       0.272896
       80       8.533333       0.270142
       81       7.800000       0.247395
       82       7.266667       0.232526
       83       7.000000       0.225229
       84       7.533333       0.239401
       85       6.933333       0.224594
       86       7.400000       0.236595
       87       7.333333       0.234898
       88       7.400000       0.235804
       89       7.333333       0.235850
       90       7.000000       0.226618
       91       7.533333       0.240976
       92       7.200000       0.232180
       93       7.066667       0.227444
       94       7.933333       0.252109
       95       6.666667       0.217755
       96       6.466667       0.211180
       97       8.200000       0.260778
       98       7.866667       0.252291
       99       7.533333       0.240766
      100       7.466667       0.238230
      101       8.200000       0.259205
      102       7.266667       0.232860
      103       7.333333       0.234972
      104       7.666667       0.245059
      105       7.533333       0.241215
      106       7.800000       0.248935
      107       7.466667       0.239789
      108       6.933333       0.224359
      109       7.600000       0.241821
      110       7.466667       0.237276
      111       7.266667       0.231686
      112       6.933333       0.222584
      113       7.266667       0.230529
      114       6.466667       0.204025
      115       5.600000       0.175143
      116       7.733333       0.231915
      117       7.066667       0.213307
      118       6.666667       0.203464
      119       7.533333       0.227847
      120       6.733333       0.206083
      121       6.733333       0.206508
      122       6.266667       0.193407
      123       7.266667       0.230235
      124       6.200000       0.199319
      125       6.466667       0.205932
      126       6.666667       0.210727
      127       5.866667       0.188379
      128       6.800000       0.213229
      129       6.466667       0.203731
      130       6.333333       0.201025
      131       6.266667       0.201492
      132       7.000000       0.221873
      133       5.333333       0.176040

 Density error is 0.165446769449
                          Error Threshold = 0.010000000000

       Energy                       Rydberg                            eV
   E_KohnSham               -8.490948455033             -115.525280412752
     E_Harris               -8.522408793669             -115.953320279198
      E_Fermi               +0.596109831215               +8.110490338347

 PW ALGORITHM --------------- ION=   1  ELEC=   2--------------------------------
  K-point    CG iter num      Time(Sec)
        1       2.600000       0.096707
        2       2.666667       0.098834
        3       2.066667       0.081467
        4       2.066667       0.081927
        5       2.200000       0.086282
        6       2.533333       0.095399
        7       2.333333       0.089781
        8       2.600000       0.097137
        9       2.133333       0.084042
       10       2.200000       0.085636
       11       2.000000       0.080174
       12       2.333333       0.089698
       13       2.000000       0.080238
       14       2.000000       0.080332
       15       2.200000       0.085962
       16       2.333333       0.090100
       17       2.000000       0.081190
       18       2.866667       0.105489
       19       2.533333       0.096369
       20       2.266667       0.088912
       21       2.200000       0.087211
       22       2.000000       0.081625
       23       2.133333       0.085250
       24       2.200000       0.086870
       25       2.000000       0.080821
       26       2.000000       0.081262
       27       2.266667       0.088838
       28       2.266667       0.088858
       29       2.000000       0.081434
       30       2.333333       0.091429
       31       2.066667       0.082879
       32       2.000000       0.081658
       33       2.066667       0.083661
       34       2.266667       0.089367
       35       2.333333       0.091594
       36       2.200000       0.087429
       37       2.600000       0.099312
       38       2.066667       0.083050
       39       2.000000       0.081566
       40       2.000000       0.080997
       41       2.733333       0.101690
       42       2.066667       0.082877
       43       2.066667       0.082660
       44       2.000000       0.080656
       45       2.000000       0.081358
       46       2.000000       0.081278
       47       2.733333       0.101945
       48       2.000000       0.080241
       49       2.200000       0.087241
       50       2.066667       0.082708
       51       2.200000       0.087276
       52       2.200000       0.087118
       53       2.066667       0.082848
       54       2.066667       0.082988
       55       2.200000       0.086926
       56       2.066667       0.083146
       57       2.000000       0.081249
       58       2.200000       0.086577
       59       2.200000       0.083261
       60       2.066667       0.079024
       61       2.133333       0.080951
       62       2.066667       0.079046
       63       2.133333       0.080211
       64       2.000000       0.076824
       65       2.133333       0.079720
       66       2.066667       0.077953
       67       2.000000       0.074722
       68       2.000000       0.075523
       69       2.066667       0.077206
       70       2.000000       0.075578
       71       2.066667       0.077388
       72       2.000000       0.075420
       73       2.200000       0.080660
       74       2.000000       0.075167
       75       2.000000       0.075560
       76       2.066667       0.077425
       77       2.066667       0.076374
       78       2.000000       0.075915
       79       2.400000       0.085434
       80       2.133333       0.078989
       81       2.133333       0.083471
       82       2.000000       0.079685
       83       2.266667       0.087021
       84       2.400000       0.091163
       85       2.200000       0.085514
       86       2.266667       0.088131
       87       2.200000       0.085881
       88       2.000000       0.079575
       89       2.066667       0.081493
       90       2.200000       0.084859
       91       2.066667       0.081514
       92       2.000000       0.079237
       93       2.066667       0.081730
       94       2.066667       0.081745
       95       2.266667       0.088301
       96       2.200000       0.085763
       97       2.400000       0.091817
       98       2.200000       0.085942
       99       2.266667       0.088345
      100       2.533333       0.095659
      101       2.000000       0.080637
      102       2.400000       0.091909
      103       2.733333       0.101490
      104       2.133333       0.083616
      105       2.066667       0.082029
      106       2.133333       0.083823
      107       2.000000       0.080415
      108       2.000000       0.080030
      109       2.133333       0.084476
      110       2.000000       0.080727
      111       2.000000       0.080416
      112       2.066667       0.082438
      113       2.333333       0.085097
      114       2.000000       0.075164
      115       2.133333       0.077483
      116       2.133333       0.077494
      117       2.200000       0.078901
      118       2.266667       0.081183
      119       2.333333       0.082522
      120       2.066667       0.076370
      121       2.000000       0.073312
      122       2.933333       0.098578
      123       2.200000       0.079256
      124       2.000000       0.073752
      125       2.266667       0.080753
      126       2.133333       0.077305
      127       2.400000       0.084147
      128       2.000000       0.074955
      129       2.000000       0.074837
      130       2.000000       0.074534
      131       2.000000       0.071223
      132       2.000000       0.074434
      133       2.466667       0.086713

 Density error is 0.012117179679
                          Error Threshold = 0.002757446157

       Energy                       Rydberg                            eV
   E_KohnSham               -8.513463871465             -115.831618369068
     E_Harris               -8.503961214665             -115.702328090439
      E_Fermi               +0.588351626404               +8.004934546665

 PW ALGORITHM --------------- ION=   1  ELEC=   3--------------------------------
  K-point    CG iter num      Time(Sec)
        1       6.133333       0.181242
        2       4.066667       0.127196
        3       3.133333       0.103590
        4       3.066667       0.099558
        5       2.933333       0.097995
        6       2.866667       0.097062
        7       2.600000       0.089981
        8       3.800000       0.121014
        9       2.800000       0.095226
       10       2.666667       0.091578
       11       3.000000       0.106533
       12       2.800000       0.117804
       13       3.733333       0.128714
       14       2.733333       0.100538
       15       2.933333       0.107674
       16       3.600000       0.126919
       17       3.800000       0.131753
       18       3.466667       0.123190
       19       4.000000       0.137900
       20       3.866667       0.133121
       21       4.200000       0.142654
       22       3.400000       0.120064
       23       3.133333       0.113485
       24       2.733333       0.102241
       25       2.600000       0.098134
       26       3.133333       0.114424
       27       4.266667       0.145612
       28       2.933333       0.108550
       29       2.733333       0.102020
       30       2.733333       0.102195
       31       2.733333       0.101646
       32       3.466667       0.123038
       33       2.933333       0.108492
       34       3.000000       0.109338
       35       2.866667       0.105143
       36       4.200000       0.143284
       37       3.133333       0.113461
       38       3.066667       0.112104
       39       3.466667       0.122581
       40       3.933333       0.136295
       41       3.266667       0.115990
       42       3.333333       0.118278
       43       3.200000       0.114560
       44       2.666667       0.099339
       45       2.866667       0.106163
       46       3.600000       0.126181
       47       3.600000       0.126983
       48       2.866667       0.105738
       49       3.133333       0.111118
       50       3.000000       0.107845
       51       2.800000       0.102342
       52       3.200000       0.113672
       53       3.000000       0.109198
       54       3.000000       0.108525
       55       3.333333       0.118711
       56       2.933333       0.107560
       57       2.733333       0.102013
       58       3.333333       0.119474
       59       3.533333       0.124215
       60       3.800000       0.131913
       61       3.066667       0.111329
       62       2.866667       0.105462
       63       3.133333       0.113739
       64       2.866667       0.106152
       65       3.600000       0.125641
       66       3.533333       0.124701
       67       3.533333       0.124625
       68       2.933333       0.107529
       69       2.666667       0.099363
       70       3.400000       0.119911
       71       3.133333       0.111018
       72       2.800000       0.103066
       73       2.600000       0.095644
       74       3.400000       0.119658
       75       2.733333       0.099970
       76       2.733333       0.099111
       77       3.733333       0.121455
       78       3.600000       0.117807
       79       3.866667       0.124612
       80       3.400000       0.112608
       81       3.000000       0.101107
       82       2.800000       0.096659
       83       2.533333       0.088713
       84       3.466667       0.113989
       85       3.266667       0.108142
       86       2.733333       0.093477
       87       2.933333       0.099868
       88       2.733333       0.094610
       89       3.200000       0.106243
       90       3.266667       0.108329
       91       2.733333       0.094742
       92       2.866667       0.098896
       93       3.200000       0.109817
       94       3.000000       0.109097
       95       2.800000       0.103588
       96       3.733333       0.128989
       97       3.266667       0.116464
       98       3.200000       0.115197
       99       3.800000       0.132529
      100       3.133333       0.112397
      101       2.733333       0.101238
      102       2.333333       0.090111
      103       3.866667       0.134097
      104       3.000000       0.109526
      105       3.266667       0.117058
      106       3.066667       0.110212
      107       2.733333       0.100711
      108       2.933333       0.106018
      109       3.333333       0.117664
      110       2.533333       0.094910
      111       2.866667       0.104954
      112       3.533333       0.123578
      113       2.800000       0.102207
      114       3.333333       0.118749
      115       3.266667       0.115886
      116       3.400000       0.120440
      117       3.333333       0.118866
      118       3.266667       0.116130
      119       3.000000       0.108976
      120       2.533333       0.095072
      121       2.333333       0.089958
      122       3.333333       0.118877
      123       3.066667       0.110342
      124       2.933333       0.107210
      125       2.600000       0.098162
      126       2.666667       0.099684
      127       2.800000       0.103808
      128       2.733333       0.101701
      129       2.466667       0.095186
      130       2.933333       0.107973
      131       2.800000       0.104527
      132       2.800000       0.104128
      133       2.333333       0.090705

 Density error is 0.000068265974
                          Error Threshold = 0.000201952995

       Energy                       Rydberg                            eV
   E_KohnSham               -8.514209267472             -115.841760002027
     E_Harris               -8.514209974083             -115.841769615958
      E_Fermi               +0.587395465275               +7.991925307096

 PW ALGORITHM --------------- ION=   1  ELEC=   4--------------------------------
  K-point    CG iter num      Time(Sec)
        1       6.733333       0.214461
        2       5.400000       0.175773
        3       4.666667       0.155065
        4       4.133333       0.140271
        5       4.000000       0.136782
        6       4.266667       0.144165
        7       5.200000       0.170303
        8       5.200000       0.170069
        9       4.400000       0.147345
       10       3.933333       0.133155
       11       4.133333       0.140650
       12       4.733333       0.156389
       13       5.600000       0.181576
       14       4.200000       0.141092
       15       4.600000       0.152148
[...]
 [spin1_state]        7      16.523701       0.000000
 [spin1_state]        8      18.328821       0.000000
 [spin1_state]        9      20.021866       0.000000
 [spin1_state]       10      21.120558       0.000000
 [spin1_state]       11      22.475583       0.000000
 [spin1_state]       12      24.360068       0.000000
 [spin1_state]       13      27.039549       0.000000
 [spin1_state]       14      28.047096       0.000000
 [spin1_state]       15      31.194930       0.000000

 114/133 kpoint (Cartesian) = 0.666667 1.154701 0.355491 (1683 pws)
 [spin1_state]        1       5.407661       0.004630
 [spin1_state]        2       5.407750       0.004630
 [spin1_state]        3       6.002189       0.004630
 [spin1_state]        4       6.924041       0.004630
 [spin1_state]        5       6.924173       0.004630
 [spin1_state]        6       7.148002       0.004630
 [spin1_state]        7      18.033472       0.000000
 [spin1_state]        8      18.033515       0.000000
 [spin1_state]        9      19.031733       0.000000
 [spin1_state]       10      22.161318       0.000000
 [spin1_state]       11      22.161361       0.000000
 [spin1_state]       12      22.505011       0.000000
 [spin1_state]       13      30.291489       0.000000
 [spin1_state]       14      30.801539       0.000000
 [spin1_state]       15      30.801719       0.000000

 115/133 kpoint (Cartesian) = 0.000000 0.000000 0.304706 (1702 pws)
 [spin1_state]        1      -2.077671       0.001157
 [spin1_state]        2      -2.077494       0.001157
 [spin1_state]        3      11.778951       0.000000
 [spin1_state]        4      11.778961       0.000000
 [spin1_state]        5      21.546756       0.000000
 [spin1_state]        6      21.546756       0.000000
 [spin1_state]        7      21.546962       0.000000
 [spin1_state]        8      21.546962       0.000000
 [spin1_state]        9      22.655370       0.000000
 [spin1_state]       10      22.655371       0.000000
 [spin1_state]       11      22.655562       0.000000
 [spin1_state]       12      22.655562       0.000000
 [spin1_state]       13      23.898254       0.000000
 [spin1_state]       14      23.898381       0.000000
 [spin1_state]       15      25.880660       0.000000

 116/133 kpoint (Cartesian) = 0.916667 0.625463 0.304706 (1706 pws)
 [spin1_state]        1      -1.904245       0.006944
 [spin1_state]        2      -1.904068       0.006944
 [spin1_state]        3      11.941080       0.000000
 [spin1_state]        4      11.941090       0.000000
 [spin1_state]        5      18.746425       0.000000
 [spin1_state]        6      18.746608       0.000000
 [spin1_state]        7      20.108774       0.000000
 [spin1_state]        8      20.108975       0.000000
 [spin1_state]        9      21.746895       0.000000
 [spin1_state]       10      21.747072       0.000000
 [spin1_state]       11      24.440000       0.000000
 [spin1_state]       12      24.440197       0.000000
 [spin1_state]       13      26.224068       0.000000
 [spin1_state]       14      26.224208       0.000000
 [spin1_state]       15      27.842814       0.000000

 117/133 kpoint (Cartesian) = 0.833333 0.673575 0.304706 (1714 pws)
 [spin1_state]        1      -1.384152       0.006944
 [spin1_state]        2      -1.383974       0.006944
 [spin1_state]        3      12.401453       0.000000
 [spin1_state]        4      12.401456       0.000000
 [spin1_state]        5      15.293481       0.000000
 [spin1_state]        6      15.293655       0.000000
 [spin1_state]        7      18.572313       0.000000
 [spin1_state]        8      18.572512       0.000000
 [spin1_state]        9      20.398470       0.000000
 [spin1_state]       10      20.398638       0.000000
 [spin1_state]       11      27.012781       0.000000
 [spin1_state]       12      27.012978       0.000000
 [spin1_state]       13      28.207044       0.000000
 [spin1_state]       14      28.207148       0.000000
 [spin1_state]       15      29.779949       0.000000

 118/133 kpoint (Cartesian) = 0.750000 0.721688 0.304706 (1692 pws)
 [spin1_state]        1      -0.518073       0.006944
 [spin1_state]        2      -0.517896       0.006944
 [spin1_state]        3      11.816304       0.000000
 [spin1_state]        4      11.816472       0.000000
 [spin1_state]        5      13.472460       0.000000
 [spin1_state]        6      13.472462       0.000000
 [spin1_state]        7      17.361048       0.000000
 [spin1_state]        8      17.361247       0.000000
 [spin1_state]        9      19.259964       0.000000
 [spin1_state]       10      19.260125       0.000000
 [spin1_state]       11      25.954495       0.000000
 [spin1_state]       12      25.954505       0.000000
 [spin1_state]       13      29.897828       0.000000
 [spin1_state]       14      29.898009       0.000000
 [spin1_state]       15      31.378176       0.000000

 119/133 kpoint (Cartesian) = 0.666667 0.769800 0.304706 (1682 pws)
 [spin1_state]        1       0.692098       0.006944
 [spin1_state]        2       0.692275       0.006944
 [spin1_state]        3       9.004668       0.000000
 [spin1_state]        4       9.004848       0.000000
 [spin1_state]        5      14.509416       0.000000
 [spin1_state]        6      14.509422       0.000000
 [spin1_state]        7      16.492694       0.000000
 [spin1_state]        8      16.492894       0.000000
 [spin1_state]        9      18.418227       0.000000
 [spin1_state]       10      18.418379       0.000000
 [spin1_state]       11      23.199547       0.000000
 [spin1_state]       12      23.199559       0.000000
 [spin1_state]       13      30.514858       0.000000
 [spin1_state]       14      30.514886       0.000000
 [spin1_state]       15      32.170786       0.000000

 120/133 kpoint (Cartesian) = 0.583333 0.817913 0.304706 (1678 pws)
 [spin1_state]        1       2.238509       0.006944
 [spin1_state]        2       2.238684       0.006944
 [spin1_state]        3       6.443976       0.006944
 [spin1_state]        4       6.444158       0.006944
 [spin1_state]        5      15.878583       0.000000
 [spin1_state]        6      15.878591       0.000000
 [spin1_state]        7      15.970934       0.000000
 [spin1_state]        8      15.971134       0.000000
 [spin1_state]        9      17.864705       0.000000
 [spin1_state]       10      17.864830       0.000000
 [spin1_state]       11      20.867841       0.000000
 [spin1_state]       12      20.867842       0.000000
 [spin1_state]       13      30.025216       0.000000
 [spin1_state]       14      30.025243       0.000000
 [spin1_state]       15      31.943024       0.000000

 121/133 kpoint (Cartesian) = 0.500000 0.866025 0.304706 (1668 pws)
 [spin1_state]        1       3.827711       0.003472
 [spin1_state]        2       3.827873       0.003472
 [spin1_state]        3       4.514399       0.003472
 [spin1_state]        4       4.514595       0.003472
 [spin1_state]        5      15.796919       0.000000
 [spin1_state]        6      15.797118       0.000000
 [spin1_state]        7      16.964616       0.000000
 [spin1_state]        8      16.964714       0.000000
 [spin1_state]        9      17.472969       0.000000
 [spin1_state]       10      17.472975       0.000000
 [spin1_state]       11      19.667156       0.000000
 [spin1_state]       12      19.667183       0.000000
 [spin1_state]       13      29.856354       0.000000
 [spin1_state]       14      29.856384       0.000000
 [spin1_state]       15      31.826081       0.000000

 122/133 kpoint (Cartesian) = 0.916667 1.587713 0.304706 (1694 pws)
 [spin1_state]        1      -1.557482       0.006944
 [spin1_state]        2      -1.557305       0.006944
 [spin1_state]        3      12.257002       0.000000
 [spin1_state]        4      12.257009       0.000000
 [spin1_state]        5      16.858037       0.000000
 [spin1_state]        6      16.858208       0.000000
 [spin1_state]        7      17.381301       0.000000
 [spin1_state]        8      17.381497       0.000000
 [spin1_state]        9      23.001887       0.000000
 [spin1_state]       10      23.002082       0.000000
 [spin1_state]       11      24.025564       0.000000
 [spin1_state]       12      24.025730       0.000000
 [spin1_state]       13      29.312965       0.000000
 [spin1_state]       14      29.313107       0.000000
 [spin1_state]       15      30.023536       0.000000

 123/133 kpoint (Cartesian) = 0.916667 1.491488 0.304706 (1694 pws)
 [spin1_state]        1      -0.864361       0.013889
 [spin1_state]        2      -0.864184       0.013889
 [spin1_state]        3      12.733802       0.000000
 [spin1_state]        4      12.733837       0.000000
 [spin1_state]        5      13.866075       0.000000
 [spin1_state]        6      13.866215       0.000000
 [spin1_state]        7      15.844915       0.000000
 [spin1_state]        8      15.845097       0.000000
 [spin1_state]        9      22.142922       0.000000
 [spin1_state]       10      22.143102       0.000000
 [spin1_state]       11      26.093264       0.000000
 [spin1_state]       12      26.093424       0.000000
 [spin1_state]       13      27.810303       0.000000
 [spin1_state]       14      27.810303       0.000000
 [spin1_state]       15      29.863951       0.000000

 124/133 kpoint (Cartesian) = 0.916667 1.395263 0.304706 (1684 pws)
 [spin1_state]        1       0.173983       0.013889
 [spin1_state]        2       0.174160       0.013889
 [spin1_state]        3      10.525389       0.000000
 [spin1_state]        4      10.525568       0.000000
 [spin1_state]        5      13.842909       0.000000
 [spin1_state]        6      13.842950       0.000000
 [spin1_state]        7      14.975289       0.000000
 [spin1_state]        8      14.975423       0.000000
 [spin1_state]        9      21.126830       0.000000
 [spin1_state]       10      21.127003       0.000000
 [spin1_state]       11      24.650840       0.000000
 [spin1_state]       12      24.650849       0.000000
 [spin1_state]       13      28.541228       0.000000
 [spin1_state]       14      28.541268       0.000000
 [spin1_state]       15      29.786479       0.000000

 125/133 kpoint (Cartesian) = 0.916667 1.299038 0.304706 (1690 pws)
 [spin1_state]        1       1.554004       0.013889
 [spin1_state]        2       1.554180       0.013889
 [spin1_state]        3       7.809311       0.013815
 [spin1_state]        4       7.809492       0.013815
 [spin1_state]        5      13.858965       0.000000
 [spin1_state]        6      13.859139       0.000000
 [spin1_state]        7      15.559534       0.000000
 [spin1_state]        8      15.559536       0.000000
 [spin1_state]        9      20.290130       0.000000
 [spin1_state]       10      20.290281       0.000000
 [spin1_state]       11      22.204234       0.000000
 [spin1_state]       12      22.204243       0.000000
 [spin1_state]       13      28.112968       0.000000
 [spin1_state]       14      28.112977       0.000000
 [spin1_state]       15      32.808049       0.000000

 126/133 kpoint (Cartesian) = 0.916667 1.202813 0.304706 (1688 pws)
 [spin1_state]        1       3.249801       0.013889
 [spin1_state]        2       3.249974       0.013889
 [spin1_state]        3       5.434953       0.013889
 [spin1_state]        4       5.435137       0.013889
 [spin1_state]        5      13.583402       0.000000
 [spin1_state]        6      13.583587       0.000000
 [spin1_state]        7      17.021104       0.000000
 [spin1_state]        8      17.021124       0.000000
 [spin1_state]        9      19.122160       0.000000
 [spin1_state]       10      19.122228       0.000000
 [spin1_state]       11      20.833555       0.000000
 [spin1_state]       12      20.833653       0.000000
 [spin1_state]       13      27.797835       0.000000
 [spin1_state]       14      27.797847       0.000000
 [spin1_state]       15      34.151941       0.000000

 127/133 kpoint (Cartesian) = 0.833333 1.443376 0.304706 (1700 pws)
 [spin1_state]        1       0.001150       0.006944
 [spin1_state]        2       0.001327       0.006944
 [spin1_state]        3      12.216856       0.000000
 [spin1_state]        4      12.217023       0.000000
 [spin1_state]        5      12.427944       0.000000
 [spin1_state]        6      12.428111       0.000000
 [spin1_state]        7      14.247265       0.000000
 [spin1_state]        8      14.247282       0.000000
 [spin1_state]        9      24.484293       0.000000
 [spin1_state]       10      24.484468       0.000000
 [spin1_state]       11      24.991880       0.000000
 [spin1_state]       12      24.992005       0.000000
 [spin1_state]       13      26.392089       0.000000
 [spin1_state]       14      26.392090       0.000000
 [spin1_state]       15      27.629882       0.000000

 128/133 kpoint (Cartesian) = 0.833333 1.347151 0.304706 (1680 pws)
 [spin1_state]        1       1.210366       0.013889
 [spin1_state]        2       1.210543       0.013889
 [spin1_state]        3       9.500602       0.000000
 [spin1_state]        4       9.500780       0.000000
 [spin1_state]        5      11.584626       0.000000
 [spin1_state]        6      11.584811       0.000000
 [spin1_state]        7      15.213234       0.000000
 [spin1_state]        8      15.213248       0.000000
 [spin1_state]        9      23.125639       0.000000
 [spin1_state]       10      23.125676       0.000000
 [spin1_state]       11      24.406560       0.000000
 [spin1_state]       12      24.406673       0.000000
 [spin1_state]       13      25.915135       0.000000
 [spin1_state]       14      25.915163       0.000000
 [spin1_state]       15      28.786969       0.000000

 129/133 kpoint (Cartesian) = 0.833333 1.250926 0.304706 (1686 pws)
 [spin1_state]        1       2.755151       0.013889
 [spin1_state]        2       2.755326       0.013889
 [spin1_state]        3       6.952948       0.013889
 [spin1_state]        4       6.953129       0.013889
 [spin1_state]        5      11.084064       0.000000
 [spin1_state]        6      11.084249       0.000000
 [spin1_state]        7      16.641330       0.000000
 [spin1_state]        8      16.641351       0.000000
 [spin1_state]        9      20.903851       0.000000
 [spin1_state]       10      20.903855       0.000000
 [spin1_state]       11      23.746138       0.000000
 [spin1_state]       12      23.746283       0.000000
 [spin1_state]       13      25.492035       0.000000
 [spin1_state]       14      25.492051       0.000000
 [spin1_state]       15      32.160998       0.000000

 130/133 kpoint (Cartesian) = 0.833333 1.154701 0.304706 (1686 pws)
 [spin1_state]        1       4.341111       0.006944
 [spin1_state]        2       4.341271       0.006944
 [spin1_state]        3       5.029201       0.006944
 [spin1_state]        4       5.029397       0.006944
 [spin1_state]        5      10.915505       0.000000
 [spin1_state]        6      10.915690       0.000000
 [spin1_state]        7      17.876584       0.000000
 [spin1_state]        8      17.876621       0.000000
 [spin1_state]        9      19.365012       0.000000
 [spin1_state]       10      19.365027       0.000000
 [spin1_state]       11      23.551285       0.000000
 [spin1_state]       12      23.551433       0.000000
 [spin1_state]       13      25.333364       0.000000
 [spin1_state]       14      25.333378       0.000000
 [spin1_state]       15      35.528442       0.000000

 131/133 kpoint (Cartesian) = 0.750000 1.299038 0.304706 (1688 pws)
 [spin1_state]        1       2.586728       0.006944
 [spin1_state]        2       2.586904       0.006944
 [spin1_state]        3       8.587155       0.000000
 [spin1_state]        4       8.587324       0.000000
 [spin1_state]        5       9.117517       0.000000
 [spin1_state]        6       9.117714       0.000000
 [spin1_state]        7      16.496983       0.000000
 [spin1_state]        8      16.497004       0.000000
 [spin1_state]        9      22.287177       0.000000
 [spin1_state]       10      22.287197       0.000000
 [spin1_state]       11      23.477769       0.000000
 [spin1_state]       12      23.477784       0.000000
 [spin1_state]       13      27.216312       0.000000
 [spin1_state]       14      27.216508       0.000000
 [spin1_state]       15      28.654810       0.000000

 132/133 kpoint (Cartesian) = 0.750000 1.202813 0.304706 (1682 pws)
 [spin1_state]        1       4.274030       0.013889
 [spin1_state]        2       4.274201       0.013889
 [spin1_state]        3       6.446405       0.013889
 [spin1_state]        4       6.446587       0.013889
 [spin1_state]        5       8.554281       0.000000
 [spin1_state]        6       8.554468       0.000000
 [spin1_state]        7      17.997686       0.000000
 [spin1_state]        8      17.997716       0.000000
 [spin1_state]        9      20.543877       0.000000
 [spin1_state]       10      20.543883       0.000000
 [spin1_state]       11      22.753438       0.000000
 [spin1_state]       12      22.753446       0.000000
 [spin1_state]       13      27.482659       0.000000
 [spin1_state]       14      27.482837       0.000000
 [spin1_state]       15      31.669951       0.000000

 133/133 kpoint (Cartesian) = 0.666667 1.154701 0.304706 (1686 pws)
 [spin1_state]        1       5.626167       0.002315
 [spin1_state]        2       5.626314       0.002315
 [spin1_state]        3       6.528534       0.002315
 [spin1_state]        4       6.528738       0.002315
 [spin1_state]        5       6.610732       0.002315
 [spin1_state]        6       6.610923       0.002315
 [spin1_state]        7      18.891886       0.000000
 [spin1_state]        8      18.891930       0.000000
 [spin1_state]        9      20.718596       0.000000
 [spin1_state]       10      20.718626       0.000000
 [spin1_state]       11      21.216697       0.000000
 [spin1_state]       12      21.216739       0.000000
 [spin1_state]       13      30.820633       0.000000
 [spin1_state]       14      30.820828       0.000000
 [spin1_state]       15      30.903026       0.000000



 --------------------------------------------
 !FINAL_ETOT_IS -115.8425391897181385 eV
 --------------------------------------------






  |CLASS_NAME---------|NAME---------------|TIME(Sec)-----|CALLS----|AVG------|PER%-------
  B              Run_pw     plane_wave_line        121.012         1    121.01     99.96%
  C             Cell_PW        opt_cells_pw         120.81         1    120.81     99.80%
  X                 FFT               FFT3D          91.74    129168      0.00     75.78%
  C            wavefunc             wfcinit           4.09         1      4.09      3.38%
  G           Hamilt_PW      diagH_subspace          20.89       798      0.03     17.26%
  H           Hamilt_PW               h_psi          98.65     47413      0.00     81.49%
  H           Hamilt_PW                vloc          98.11     47413      0.00     81.04%
  C                Ions         opt_ions_pw         116.49         1    116.49     96.23%
  D           Electrons     self_consistent         116.49         1    116.49     96.23%
  E           Electrons             c_bands          66.22         3     22.07     54.70%
  F              Hamilt            diagH_pw         103.24       798      0.13     85.28%
  G            Diago_CG                diag          85.67       798      0.11     70.77%
  E           electrons             c_bands          50.37         3     16.79     41.61%
 ----------------------------------------------------------------------------------------

 CLASS_NAME---------|NAME---------------|MEMORY(MB)--------
                                         64.6876
             wavefunc                 evc        52.8765
         Charge_Pulay                Rrho         2.4719
         Charge_Pulay               dRrho         2.1629
         Charge_Pulay                drho         2.1629
 ----------------------------------------------------------
