 *********************************************************
 *                                                       *
 *                  WELCOME TO ABACUS v3.0               *
 *                                                       *
 *            'Atomic-orbital Based Ab-initio            *
 *                  Computation at UStc'                 *
 *                                                       *
 *          Website: http://abacus.ustc.edu.cn/          *
 *                                                       *
 *********************************************************
 Wed Apr 26 09:43:29 2023
 MAKE THE DIR         : OUT.oftest/
Notice: symbol 'Li_locpsp' is not an element symbol!!!! set the covalent radius to be 0.
 UNIFORM GRID DIM     : 45 * 45 * 45
 UNIFORM GRID DIM(BIG): 45 * 45 * 45
func,idXC_GGA_X_PBE 101
func,idXC_GGA_C_PBE 130
 DONE(0.252753   SEC) : SETUP UNITCELL
 DONE(0.301255   SEC) : SYMMETRY
 DONE(0.301446   SEC) : INIT K-POINTS
 ---------------------------------------------------------
 Self-consistent calculations for electrons
 ---------------------------------------------------------
 SPIN    KPOINTS         PROCESSORS  
 1       1               1           
 ---------------------------------------------------------
 Use plane wave basis
 ---------------------------------------------------------
 ELEMENT NATOM       XC          
 Li      1           
 ---------------------------------------------------------
 Initial plane wave basis and FFT box
 ---------------------------------------------------------
 DONE(0.30383    SEC) : INIT BASIS
 DONE(0.303851   SEC) : INIT PHI
 DONE(0.437797   SEC) : LOCAL POTENTIAL
 DONE(0.437838   SEC) : NON-LOCAL POTENTIAL
 START CHARGE      : atomic
 DONE(0.730811   SEC) : INIT POTENTIAL
 DONE(0.731329   SEC) : INIT OPTIMIZATION
Default type: double
nnode = 10
nlayer = 3
feg_net_F = 0.540933
 DONE(0.812987   SEC) : INIT KEDF
======================== Running OFDFT ========================
Iter        Etot(Ha)          Theta      PotNorm     deltaE(Ha)
0     -2.675204214130e-01   2.000e-01   6.915e-02   -2.675e-01  
1     -2.744884382312e-01   3.534e-02   7.498e-02   -6.968e-03  
2     -2.764122157681e-01   3.030e-02   3.175e-02   -1.924e-03  
3     -2.766625041718e-01   9.621e-03   1.663e-02   -2.503e-04  
4     -2.766901359214e-01   1.246e-03   1.155e-02   -2.763e-05  
5     -2.767026450926e-01   9.521e-04   1.017e-02   -1.251e-05  
6     -2.767167880724e-01   1.305e-03   1.186e-02   -1.414e-05  
7     -2.767561345105e-01   5.418e-03   2.155e-03   -3.935e-05  
8     -2.767574469850e-01   9.507e-04   5.404e-04   -1.312e-06  
9     -2.767574670629e-01   3.355e-05   3.016e-04   -2.008e-08  
10    -2.767574877254e-01   7.690e-05   3.575e-04   -2.066e-08  

  |CLASS_NAME---------|NAME---------------|TIME(Sec)-----|CALLS----|AVG------|PER%-------
                       total               724.96         21        35        1e+02     %
   Driver              driver_line         724.95         1         7.2e+02   1e+02     %
   PW_Basis            setuptransform      0.20907        1         0.21      0.029     %
   ppcell_vl           init_vloc           0.13381        1         0.13      0.018     %
   Charge              atomic_rho          0.13981        1         0.14      0.019     %
   PW_Basis            recip2real          18.282         5748      0.0032    2.5       %
   PW_Basis            gathers_scatterp    1.5275         5748      0.00027   0.21      %
   Potential           init_pot            0.1474         1         0.15      0.02      %
   Potential           update_from_charge  27.133         288       0.094     3.7       %
   Potential           cal_v_eff           27.126         288       0.094     3.7       %
   H_Hartree_pw        v_hartree           2.1657         288       0.0075    0.3       %
   PW_Basis            real2recip          18.726         5748      0.0033    2.6       %
   PW_Basis            gatherp_scatters    1.0411         5748      0.00018   0.14      %
   PotXC               cal_v_eff           24.878         288       0.086     3.4       %
   XC_Functional       v_xc                360.5          144       2.5       50        %
   XC_Functional       v_xc_libxc          24.841         288       0.086     3.4       %
   ESolver_OF          Run                 724.15         1         7.2e+02   1e+02     %
   KEDF_vW             vw_potential        2.1064         287       0.0073    0.29      %
 ----------------------------------------------------------------------------------------

 START  Time  : Wed Apr 26 09:43:29 2023
 FINISH Time  : Wed Apr 26 09:55:34 2023
 TOTAL  Time  : 7.2e+02
 SEE INFORMATION IN : OUT.oftest/
