                                                                                     
                             WELCOME TO ABACUS v3.0                                  
                                                                                     
               'Atomic-orbital Based Ab-initio Computation at UStc'                  
                                                                                     
                     Website: http://abacus.ustc.edu.cn/                             
                                                                                     
    Version: Parallel, in development
    Processor Number is 1
    Start Time is Mon Mar  6 13:58:28 2023
                                                                                     
 ------------------------------------------------------------------------------------

 READING GENERAL INFORMATION
                           global_out_dir = OUT.blpstest/
                           global_in_card = INPUT
                               pseudo_dir = 
                              orbital_dir = 
                                    DRANK = 1
                                    DSIZE = 1
                                   DCOLOR = 1
                                    GRANK = 1
                                    GSIZE = 1
 The esolver type has been set to : ksdft_pw




 >>>>>>>>>>>>>>>>>>>>>>>>>>>>>>>>>>>>>>>>>>>>>>>>>>>>>>>>>>>>>>>>>>>>>>
 |                                                                    |
 | Reading atom information in unitcell:                              |
 | From the input file and the structure file we know the number of   |
 | different elments in this unitcell, then we list the detail        |
 | information for each element, especially the zeta and polar atomic |
 | orbital number for each element. The total atom number is counted. |
 | We calculate the nearest atom distance for each atom and show the  |
 | Cartesian and Direct coordinates for each atom. We list the file   |
 | address for atomic orbitals. The volume and the lattice vectors    |
 | in real and reciprocal space is also shown.                        |
 |                                                                    |
 <<<<<<<<<<<<<<<<<<<<<<<<<<<<<<<<<<<<<<<<<<<<<<<<<<<<<<<<<<<<<<<<<<<<<<




 READING UNITCELL INFORMATION
                                    ntype = 2
                 atom label for species 1 = Li
                 atom label for species 2 = Mg
                  lattice constant (Bohr) = 13.996
              lattice constant (Angstrom) = 7.40637

 READING ATOM TYPE 1
                               atom label = Li
                      L=0, number of zeta = 1
                      L=1, number of zeta = 1
                      L=2, number of zeta = 1
             number of atom for this type = 12
                      start magnetization = FALSE
                      start magnetization = FALSE
                      start magnetization = FALSE
                      start magnetization = FALSE
                      start magnetization = FALSE
                      start magnetization = FALSE
                      start magnetization = FALSE
                      start magnetization = FALSE
                      start magnetization = FALSE
                      start magnetization = FALSE
                      start magnetization = FALSE
                      start magnetization = FALSE

 READING ATOM TYPE 2
                               atom label = Mg
                      L=0, number of zeta = 1
                      L=1, number of zeta = 1
                      L=2, number of zeta = 1
             number of atom for this type = 4
                      start magnetization = FALSE
                      start magnetization = FALSE
                      start magnetization = FALSE
                      start magnetization = FALSE

                        TOTAL ATOM NUMBER = 16

 DIRECT COORDINATES
         atom                   x                   y                   z                 mag                  vx                  vy                  vz
     taud_Li1                0.75                0.75                0.25                   0                   0                   0                   0
     taud_Li2                   0                 0.5                   0                   0                   0                   0                   0
     taud_Li3                0.25                0.75                0.25                   0                   0                   0                   0
     taud_Li4                0.75                0.25                0.75                   0                   0                   0                   0
     taud_Li5                   0                   0                 0.5                   0                   0                   0                   0
     taud_Li6                0.25                0.25                0.75                   0                   0                   0                   0
     taud_Li7                0.25                0.75                0.75                   0                   0                   0                   0
     taud_Li8                 0.5                 0.5                 0.5                   0                   0                   0                   0
     taud_Li9                0.75                0.75                0.75                   0                   0                   0                   0
    taud_Li10                0.25                0.25                0.25                   0                   0                   0                   0
    taud_Li11                 0.5                   0                   0                   0                   0                   0                   0
    taud_Li12                0.75                0.25                0.25                   0                   0                   0                   0
     taud_Mg1                   0                   0                   0                   0                   0                   0                   0
     taud_Mg2                   0                 0.5                 0.5                   0                   0                   0                   0
     taud_Mg3                 0.5                   0                 0.5                   0                   0                   0                   0
     taud_Mg4                 0.5                 0.5                   0                   0                   0                   0                   0


                          Volume (Bohr^3) = 2741.66
                             Volume (A^3) = 406.272

 Lattice vectors: (Cartesian coordinate: in unit of a_0)
                   +1                  +0                  +0
                   +0                  +1                  +0
                   +0                  +0                  +1
 Reciprocal vectors: (Cartesian coordinate: in unit of 2 pi/a_0)
                   +1                  -0                  +0
                   -0                  +1                  -0
                   +0                  -0                  +1




 >>>>>>>>>>>>>>>>>>>>>>>>>>>>>>>>>>>>>>>>>>>>>>>>>>>>>>>>>>>>>>>>>>>>>>
 |                                                                    |
 | Reading pseudopotentials files:                                    |
 | The pseudopotential file is in UPF format. The 'NC' indicates that |
 | the type of pseudopotential is 'norm conserving'. Functional of    |
 | exchange and correlation is decided by 4 given parameters in UPF   |
 | file.  We also read in the 'core correction' if there exists.      |
 | Also we can read the valence electrons number and the maximal      |
 | angular momentum used in this pseudopotential. We also read in the |
 | trail wave function, trail atomic density and local-pseudopotential|
 | on logrithmic grid. The non-local pseudopotential projector is also|
 | read in if there is any.                                           |
 |                                                                    |
 <<<<<<<<<<<<<<<<<<<<<<<<<<<<<<<<<<<<<<<<<<<<<<<<<<<<<<<<<<<<<<<<<<<<<<




                PAO radial cut off (Bohr) = 16

 Read in pseudopotential file is li.gga.psp.1
                     pseudopotential type = 
          exchange-correlation functional = XC_GGA_X_PBE+XC_GGA_C_PBE
                 nonlocal core correction = 0
                        valence electrons = 1
                                     lmax = 0
                           number of zeta = 0
                     number of projectors = 0
                PAO radial cut off (Bohr) = 16

 Read in pseudopotential file is mg.gga.psp
                     pseudopotential type = 
          exchange-correlation functional = XC_GGA_X_PBE+XC_GGA_C_PBE
                 nonlocal core correction = 0
                        valence electrons = 2
                                     lmax = 0
                           number of zeta = 0
                     number of projectors = 0
Notice: symbol 'Li_locpsp' is not an element symbol!!!! set the covalent radius to be 0.
Notice: symbol 'mg_locpsp' is not an element symbol!!!! set the covalent radius to be 0.
     initial pseudo atomic orbital number = 0
                                   NLOCAL = 144




 >>>>>>>>>>>>>>>>>>>>>>>>>>>>>>>>>>>>>>>>>>>>>>>>>>>>>>>>>>>>>>>>>>>>>>
 |                                                                    |
 | Setup plane waves of charge/potential:                             |
 | Use the energy cutoff and the lattice vectors to generate the      |
 | dimensions of FFT grid. The number of FFT grid on each processor   |
 | is 'nrxx'. The number of plane wave basis in reciprocal space is   |
 | different for charege/potential and wave functions. We also set    |
 | the 'sticks' for the parallel of FFT. The number of plane waves    |
 | is 'npw' in each processor.                                        |
 <<<<<<<<<<<<<<<<<<<<<<<<<<<<<<<<<<<<<<<<<<<<<<<<<<<<<<<<<<<<<<<<<<<<<<





 SETUP THE PLANE WAVE BASIS
 energy cutoff for charge/potential (unit:Ry) = 180
          [fft grid for charge/potential] = 60, 60, 60
                      [fft grid division] = 1, 1, 1
      [big fft grid for charge/potential] = 60, 60, 60
                                     nbxx = 216000
                                     nrxx = 216000

 SETUP PLANE WAVES FOR CHARGE/POTENTIAL
                    number of plane waves = 111875
                         number of sticks = 2801

 PARALLEL PW FOR CHARGE/POTENTIAL
     PROC   COLUMNS(POT)             PW
        1           2801         111875
 --------------- sum -------------------
        1           2801         111875
                            number of |g| = 747
                                  max |g| = 893
                                  min |g| = 0

 SETUP THE ELECTRONS NUMBER
            electron number of element Li = 1
      total electron number of element Li = 12
            electron number of element Mg = 2
      total electron number of element Mg = 8
            AUTOSET number of electrons:  = 20
 DONE : SETUP UNITCELL Time : 0.688871 (SEC)





 >>>>>>>>>>>>>>>>>>>>>>>>>>>>>>>>>>>>>>>>>>>>>>>>>>>>>>>>>>>>>>>>>>>>>>
 |                                                                    |
 | Doing symmetry analysis:                                           |
 | We calculate the norm of 3 vectors and the angles between them,    |
 | the type of Bravais lattice is given. We can judge if the unticell |
 | is a primitive cell. Finally we give the point group operation for |
 | this unitcell. We we use the point group operations to do symmetry |
 | analysis on given k-point mesh and the charge density.             |
 |                                                                    |
 <<<<<<<<<<<<<<<<<<<<<<<<<<<<<<<<<<<<<<<<<<<<<<<<<<<<<<<<<<<<<<<<<<<<<<




 LATTICE VECTORS: (CARTESIAN COORDINATE: IN UNIT OF A0)
                   +1                  +0                  +0
                   +0                  +1                  +0
                   +0                  +0                  +1
                       right hand lattice = 1
                                   NORM_A = 1
                                   NORM_B = 1
                                   NORM_C = 1
                           ALPHA (DEGREE) = 90
                           BETA  (DEGREE) = 90
                           GAMMA (DEGREE) = 90
                             BRAVAIS TYPE = 1
                     BRAVAIS LATTICE NAME = 01. Cubic P (simple)
                                    IBRAV = 1
                                  BRAVAIS = SIMPLE CUBIC
                       LATTICE CONSTANT A = 1
                                    ibrav = 1
                        ROTATION MATRICES = 48
              PURE POINT GROUP OPERATIONS = 48
                   SPACE GROUP OPERATIONS = 48
                              POINT GROUP = O_h
Warning : If the optimal symmetric configuration is not the input configuration, 
you have to manually change configurations, ABACUS would only calculate the input structure.
 DONE : SYMMETRY Time : 0.724048 (SEC)





 >>>>>>>>>>>>>>>>>>>>>>>>>>>>>>>>>>>>>>>>>>>>>>>>>>>>>>>>>>>>>>>>>>>>>>
 |                                                                    |
 | Setup K-points                                                     |
 | We setup the k-points according to input parameters.               |
 | The reduced k-points are set according to symmetry operations.     |
 | We treat the spin as another set of k-points.                      |
 |                                                                    |
 <<<<<<<<<<<<<<<<<<<<<<<<<<<<<<<<<<<<<<<<<<<<<<<<<<<<<<<<<<<<<<<<<<<<<<





 SETUP K-POINTS
                                    nspin = 1
                   Input type of k points = Monkhorst-Pack(Gamma)
                                   nkstot = 1728
                               nkstot_ibz = 84
      IBZ             DirectX             DirectY             DirectZ              Weight    ibz2bz
        1                   0                   0                   0         0.000578704         0
        2            0.916667                   0                   0          0.00347222         1
        3            0.833333                   0                   0          0.00347222         2
        4                0.75                   0                   0          0.00347222         3
        5            0.666667                   0                   0          0.00347222         4
        6            0.583333                   0                   0          0.00347222         5
        7                   0                   0                 0.5          0.00173611         6
        8            0.916667            0.916667                   0          0.00694444        13
        9            0.916667            0.833333                   0           0.0138889        14
       10            0.916667                0.75                   0           0.0138889        15
       11            0.916667            0.666667                   0           0.0138889        16
       12            0.916667            0.583333                   0           0.0138889        17
       13            0.916667                 0.5                   0          0.00694444        18
       14            0.833333            0.833333                   0          0.00694444        26
       15            0.833333                0.75                   0           0.0138889        27
       16            0.833333            0.666667                   0           0.0138889        28
       17            0.833333            0.583333                   0           0.0138889        29
       18            0.833333                 0.5                   0          0.00694444        30
       19                0.75                0.75                   0          0.00694444        39
       20                0.75            0.666667                   0           0.0138889        40
       21                0.75            0.583333                   0           0.0138889        41
       22                0.75                 0.5                   0          0.00694444        42
       23            0.666667            0.666667                   0          0.00694444        52
       24            0.666667            0.583333                   0           0.0138889        53
       25            0.666667                 0.5                   0          0.00694444        54
       26            0.583333            0.583333                   0          0.00694444        65
       27            0.583333                 0.5                   0          0.00694444        66
       28                   0                 0.5                 0.5          0.00173611        78
       29            0.916667            0.916667            0.916667          0.00462963       157
       30            0.916667            0.916667            0.833333           0.0138889       158
       31            0.916667            0.916667                0.75           0.0138889       159
       32            0.916667            0.916667            0.666667           0.0138889       160
       33            0.916667            0.916667            0.583333           0.0138889       161
       34            0.916667            0.916667                 0.5          0.00694444       162
       35            0.916667            0.833333            0.833333           0.0138889       170
       36            0.916667            0.833333                0.75           0.0277778       171
       37            0.916667            0.833333            0.666667           0.0277778       172
       38            0.916667            0.833333            0.583333           0.0277778       173
       39            0.916667            0.833333                 0.5           0.0138889       174
       40            0.916667                0.75                0.75           0.0138889       183
       41            0.916667                0.75            0.666667           0.0277778       184
       42            0.916667                0.75            0.583333           0.0277778       185
       43            0.916667                0.75                 0.5           0.0138889       186
       44            0.916667            0.666667            0.666667           0.0138889       196
       45            0.916667            0.666667            0.583333           0.0277778       197
       46            0.916667            0.666667                 0.5           0.0138889       198
       47            0.916667            0.583333            0.583333           0.0138889       209
       48            0.916667            0.583333                 0.5           0.0138889       210
       49            0.916667                 0.5                 0.5          0.00347222       222
       50            0.833333            0.833333            0.833333          0.00462963       314
       51            0.833333                0.75            0.833333           0.0138889       315
       52            0.833333            0.833333            0.666667           0.0138889       316
       53            0.833333            0.833333            0.583333           0.0138889       317
       54            0.833333            0.833333                 0.5          0.00694444       318
       55            0.833333                0.75                0.75           0.0138889       327
       56            0.833333                0.75            0.666667           0.0277778       328
       57            0.833333                0.75            0.583333           0.0277778       329
       58            0.833333                0.75                 0.5           0.0138889       330
       59            0.666667            0.666667            0.833333           0.0138889       340
       60            0.666667            0.583333            0.833333           0.0277778       341
       61            0.833333            0.666667                 0.5           0.0138889       342
       62            0.833333            0.583333            0.583333           0.0138889       353
       63            0.833333            0.583333                 0.5           0.0138889       354
       64            0.833333                 0.5                 0.5          0.00347222       366
       65                0.75                0.75                0.75          0.00462963       471
       66                0.75                0.75            0.666667           0.0138889       472
       67                0.75                0.75            0.583333           0.0138889       473
       68                0.75                0.75                 0.5          0.00694444       474
       69                0.75            0.666667            0.666667           0.0138889       484
       70                0.75            0.666667            0.583333           0.0277778       485
       71                0.75            0.666667                 0.5           0.0138889       486
       72                0.75            0.583333            0.583333           0.0138889       497
       73                0.75            0.583333                 0.5           0.0138889       498
       74                0.75                 0.5                 0.5          0.00347222       510
       75            0.666667            0.666667            0.666667          0.00462963       628
       76            0.666667            0.666667            0.583333           0.0138889       629
       77            0.666667            0.666667                 0.5          0.00694444       630
       78            0.666667            0.583333            0.583333           0.0138889       641
       79            0.666667            0.583333                 0.5           0.0138889       642
       80            0.666667                 0.5                 0.5          0.00347222       654
       81            0.583333            0.583333            0.583333          0.00462963       785
       82            0.583333                 0.5            0.583333          0.00694444       786
       83            0.583333                 0.5                 0.5          0.00347222       798
       84                 0.5                 0.5                 0.5         0.000578704       942
                               nkstot now = 84

  KPOINTS            DIRECT_X            DIRECT_Y            DIRECT_Z              WEIGHT
        1                   0                   0                   0         0.000578704
        2            0.916667                   0                   0          0.00347222
        3            0.833333                   0                   0          0.00347222
        4                0.75                   0                   0          0.00347222
        5            0.666667                   0                   0          0.00347222
        6            0.583333                   0                   0          0.00347222
        7                   0                   0                 0.5          0.00173611
        8            0.916667            0.916667                   0          0.00694444
        9            0.916667            0.833333                   0           0.0138889
       10            0.916667                0.75                   0           0.0138889
       11            0.916667            0.666667                   0           0.0138889
       12            0.916667            0.583333                   0           0.0138889
       13            0.916667                 0.5                   0          0.00694444
       14            0.833333            0.833333                   0          0.00694444
       15            0.833333                0.75                   0           0.0138889
       16            0.833333            0.666667                   0           0.0138889
       17            0.833333            0.583333                   0           0.0138889
       18            0.833333                 0.5                   0          0.00694444
       19                0.75                0.75                   0          0.00694444
       20                0.75            0.666667                   0           0.0138889
       21                0.75            0.583333                   0           0.0138889
       22                0.75                 0.5                   0          0.00694444
       23            0.666667            0.666667                   0          0.00694444
       24            0.666667            0.583333                   0           0.0138889
       25            0.666667                 0.5                   0          0.00694444
       26            0.583333            0.583333                   0          0.00694444
       27            0.583333                 0.5                   0          0.00694444
       28                   0                 0.5                 0.5          0.00173611
       29            0.916667            0.916667            0.916667          0.00462963
       30            0.916667            0.916667            0.833333           0.0138889
       31            0.916667            0.916667                0.75           0.0138889
       32            0.916667            0.916667            0.666667           0.0138889
       33            0.916667            0.916667            0.583333           0.0138889
       34            0.916667            0.916667                 0.5          0.00694444
       35            0.916667            0.833333            0.833333           0.0138889
       36            0.916667            0.833333                0.75           0.0277778
       37            0.916667            0.833333            0.666667           0.0277778
       38            0.916667            0.833333            0.583333           0.0277778
       39            0.916667            0.833333                 0.5           0.0138889
       40            0.916667                0.75                0.75           0.0138889
       41            0.916667                0.75            0.666667           0.0277778
       42            0.916667                0.75            0.583333           0.0277778
       43            0.916667                0.75                 0.5           0.0138889
       44            0.916667            0.666667            0.666667           0.0138889
       45            0.916667            0.666667            0.583333           0.0277778
       46            0.916667            0.666667                 0.5           0.0138889
       47            0.916667            0.583333            0.583333           0.0138889
       48            0.916667            0.583333                 0.5           0.0138889
       49            0.916667                 0.5                 0.5          0.00347222
       50            0.833333            0.833333            0.833333          0.00462963
       51            0.833333                0.75            0.833333           0.0138889
       52            0.833333            0.833333            0.666667           0.0138889
       53            0.833333            0.833333            0.583333           0.0138889
       54            0.833333            0.833333                 0.5          0.00694444
       55            0.833333                0.75                0.75           0.0138889
       56            0.833333                0.75            0.666667           0.0277778
       57            0.833333                0.75            0.583333           0.0277778
       58            0.833333                0.75                 0.5           0.0138889
       59            0.666667            0.666667            0.833333           0.0138889
       60            0.666667            0.583333            0.833333           0.0277778
       61            0.833333            0.666667                 0.5           0.0138889
       62            0.833333            0.583333            0.583333           0.0138889
       63            0.833333            0.583333                 0.5           0.0138889
       64            0.833333                 0.5                 0.5          0.00347222
       65                0.75                0.75                0.75          0.00462963
       66                0.75                0.75            0.666667           0.0138889
       67                0.75                0.75            0.583333           0.0138889
       68                0.75                0.75                 0.5          0.00694444
       69                0.75            0.666667            0.666667           0.0138889
       70                0.75            0.666667            0.583333           0.0277778
       71                0.75            0.666667                 0.5           0.0138889
       72                0.75            0.583333            0.583333           0.0138889
       73                0.75            0.583333                 0.5           0.0138889
       74                0.75                 0.5                 0.5          0.00347222
       75            0.666667            0.666667            0.666667          0.00462963
       76            0.666667            0.666667            0.583333           0.0138889
       77            0.666667            0.666667                 0.5          0.00694444
       78            0.666667            0.583333            0.583333           0.0138889
       79            0.666667            0.583333                 0.5           0.0138889
       80            0.666667                 0.5                 0.5          0.00347222
       81            0.583333            0.583333            0.583333          0.00462963
       82            0.583333                 0.5            0.583333          0.00694444
       83            0.583333                 0.5                 0.5          0.00347222
       84                 0.5                 0.5                 0.5         0.000578704

           k-point number in this process = 84
       minimum distributed K point number = 84

  KPOINTS         CARTESIAN_X         CARTESIAN_Y         CARTESIAN_Z              WEIGHT
        1                   0                   0                   0          0.00115741
        2            0.916667                   0                   0          0.00694444
        3            0.833333                   0                   0          0.00694444
        4                0.75                   0                   0          0.00694444
        5            0.666667                   0                   0          0.00694444
        6            0.583333                   0                   0          0.00694444
        7                   0                   0                 0.5          0.00347222
        8            0.916667            0.916667                   0           0.0138889
        9            0.916667            0.833333                   0           0.0277778
       10            0.916667                0.75                   0           0.0277778
       11            0.916667            0.666667                   0           0.0277778
       12            0.916667            0.583333                   0           0.0277778
       13            0.916667                 0.5                   0           0.0138889
       14            0.833333            0.833333                   0           0.0138889
       15            0.833333                0.75                   0           0.0277778
       16            0.833333            0.666667                   0           0.0277778
       17            0.833333            0.583333                   0           0.0277778
       18            0.833333                 0.5                   0           0.0138889
       19                0.75                0.75                   0           0.0138889
       20                0.75            0.666667                   0           0.0277778
       21                0.75            0.583333                   0           0.0277778
       22                0.75                 0.5                   0           0.0138889
       23            0.666667            0.666667                   0           0.0138889
       24            0.666667            0.583333                   0           0.0277778
       25            0.666667                 0.5                   0           0.0138889
       26            0.583333            0.583333                   0           0.0138889
       27            0.583333                 0.5                   0           0.0138889
       28                   0                 0.5                 0.5          0.00347222
       29            0.916667            0.916667            0.916667          0.00925926
       30            0.916667            0.916667            0.833333           0.0277778
       31            0.916667            0.916667                0.75           0.0277778
       32            0.916667            0.916667            0.666667           0.0277778
       33            0.916667            0.916667            0.583333           0.0277778
       34            0.916667            0.916667                 0.5           0.0138889
       35            0.916667            0.833333            0.833333           0.0277778
       36            0.916667            0.833333                0.75           0.0555556
       37            0.916667            0.833333            0.666667           0.0555556
       38            0.916667            0.833333            0.583333           0.0555556
       39            0.916667            0.833333                 0.5           0.0277778
       40            0.916667                0.75                0.75           0.0277778
       41            0.916667                0.75            0.666667           0.0555556
       42            0.916667                0.75            0.583333           0.0555556
       43            0.916667                0.75                 0.5           0.0277778
       44            0.916667            0.666667            0.666667           0.0277778
       45            0.916667            0.666667            0.583333           0.0555556
       46            0.916667            0.666667                 0.5           0.0277778
       47            0.916667            0.583333            0.583333           0.0277778
       48            0.916667            0.583333                 0.5           0.0277778
       49            0.916667                 0.5                 0.5          0.00694444
       50            0.833333            0.833333            0.833333          0.00925926
       51            0.833333                0.75            0.833333           0.0277778
       52            0.833333            0.833333            0.666667           0.0277778
       53            0.833333            0.833333            0.583333           0.0277778
       54            0.833333            0.833333                 0.5           0.0138889
       55            0.833333                0.75                0.75           0.0277778
       56            0.833333                0.75            0.666667           0.0555556
       57            0.833333                0.75            0.583333           0.0555556
       58            0.833333                0.75                 0.5           0.0277778
       59            0.666667            0.666667            0.833333           0.0277778
       60            0.666667            0.583333            0.833333           0.0555556
       61            0.833333            0.666667                 0.5           0.0277778
       62            0.833333            0.583333            0.583333           0.0277778
       63            0.833333            0.583333                 0.5           0.0277778
       64            0.833333                 0.5                 0.5          0.00694444
       65                0.75                0.75                0.75          0.00925926
       66                0.75                0.75            0.666667           0.0277778
       67                0.75                0.75            0.583333           0.0277778
       68                0.75                0.75                 0.5           0.0138889
       69                0.75            0.666667            0.666667           0.0277778
       70                0.75            0.666667            0.583333           0.0555556
       71                0.75            0.666667                 0.5           0.0277778
       72                0.75            0.583333            0.583333           0.0277778
       73                0.75            0.583333                 0.5           0.0277778
       74                0.75                 0.5                 0.5          0.00694444
       75            0.666667            0.666667            0.666667          0.00925926
       76            0.666667            0.666667            0.583333           0.0277778
       77            0.666667            0.666667                 0.5           0.0138889
       78            0.666667            0.583333            0.583333           0.0277778
       79            0.666667            0.583333                 0.5           0.0277778
       80            0.666667                 0.5                 0.5          0.00694444
       81            0.583333            0.583333            0.583333          0.00925926
       82            0.583333                 0.5            0.583333           0.0138889
       83            0.583333                 0.5                 0.5          0.00694444
       84                 0.5                 0.5                 0.5          0.00115741

  KPOINTS            DIRECT_X            DIRECT_Y            DIRECT_Z              WEIGHT
        1                   0                   0                   0          0.00115741
        2            0.916667                   0                   0          0.00694444
        3            0.833333                   0                   0          0.00694444
        4                0.75                   0                   0          0.00694444
        5            0.666667                   0                   0          0.00694444
        6            0.583333                   0                   0          0.00694444
        7                   0                   0                 0.5          0.00347222
        8            0.916667            0.916667                   0           0.0138889
        9            0.916667            0.833333                   0           0.0277778
       10            0.916667                0.75                   0           0.0277778
       11            0.916667            0.666667                   0           0.0277778
       12            0.916667            0.583333                   0           0.0277778
       13            0.916667                 0.5                   0           0.0138889
       14            0.833333            0.833333                   0           0.0138889
       15            0.833333                0.75                   0           0.0277778
       16            0.833333            0.666667                   0           0.0277778
       17            0.833333            0.583333                   0           0.0277778
       18            0.833333                 0.5                   0           0.0138889
       19                0.75                0.75                   0           0.0138889
       20                0.75            0.666667                   0           0.0277778
       21                0.75            0.583333                   0           0.0277778
       22                0.75                 0.5                   0           0.0138889
       23            0.666667            0.666667                   0           0.0138889
       24            0.666667            0.583333                   0           0.0277778
       25            0.666667                 0.5                   0           0.0138889
       26            0.583333            0.583333                   0           0.0138889
       27            0.583333                 0.5                   0           0.0138889
       28                   0                 0.5                 0.5          0.00347222
       29            0.916667            0.916667            0.916667          0.00925926
       30            0.916667            0.916667            0.833333           0.0277778
       31            0.916667            0.916667                0.75           0.0277778
       32            0.916667            0.916667            0.666667           0.0277778
       33            0.916667            0.916667            0.583333           0.0277778
       34            0.916667            0.916667                 0.5           0.0138889
       35            0.916667            0.833333            0.833333           0.0277778
       36            0.916667            0.833333                0.75           0.0555556
       37            0.916667            0.833333            0.666667           0.0555556
       38            0.916667            0.833333            0.583333           0.0555556
       39            0.916667            0.833333                 0.5           0.0277778
       40            0.916667                0.75                0.75           0.0277778
       41            0.916667                0.75            0.666667           0.0555556
       42            0.916667                0.75            0.583333           0.0555556
       43            0.916667                0.75                 0.5           0.0277778
       44            0.916667            0.666667            0.666667           0.0277778
       45            0.916667            0.666667            0.583333           0.0555556
       46            0.916667            0.666667                 0.5           0.0277778
       47            0.916667            0.583333            0.583333           0.0277778
       48            0.916667            0.583333                 0.5           0.0277778
       49            0.916667                 0.5                 0.5          0.00694444
       50            0.833333            0.833333            0.833333          0.00925926
       51            0.833333                0.75            0.833333           0.0277778
       52            0.833333            0.833333            0.666667           0.0277778
       53            0.833333            0.833333            0.583333           0.0277778
       54            0.833333            0.833333                 0.5           0.0138889
       55            0.833333                0.75                0.75           0.0277778
       56            0.833333                0.75            0.666667           0.0555556
       57            0.833333                0.75            0.583333           0.0555556
       58            0.833333                0.75                 0.5           0.0277778
       59            0.666667            0.666667            0.833333           0.0277778
       60            0.666667            0.583333            0.833333           0.0555556
       61            0.833333            0.666667                 0.5           0.0277778
       62            0.833333            0.583333            0.583333           0.0277778
       63            0.833333            0.583333                 0.5           0.0277778
       64            0.833333                 0.5                 0.5          0.00694444
       65                0.75                0.75                0.75          0.00925926
       66                0.75                0.75            0.666667           0.0277778
       67                0.75                0.75            0.583333           0.0277778
       68                0.75                0.75                 0.5           0.0138889
       69                0.75            0.666667            0.666667           0.0277778
       70                0.75            0.666667            0.583333           0.0555556
       71                0.75            0.666667                 0.5           0.0277778
       72                0.75            0.583333            0.583333           0.0277778
       73                0.75            0.583333                 0.5           0.0277778
       74                0.75                 0.5                 0.5          0.00694444
       75            0.666667            0.666667            0.666667          0.00925926
       76            0.666667            0.666667            0.583333           0.0277778
       77            0.666667            0.666667                 0.5           0.0138889
       78            0.666667            0.583333            0.583333           0.0277778
       79            0.666667            0.583333                 0.5           0.0277778
       80            0.666667                 0.5                 0.5          0.00694444
       81            0.583333            0.583333            0.583333          0.00925926
       82            0.583333                 0.5            0.583333           0.0138889
       83            0.583333                 0.5                 0.5          0.00694444
       84                 0.5                 0.5                 0.5          0.00115741
 DONE : INIT K-POINTS Time : 0.741044 (SEC)





 >>>>>>>>>>>>>>>>>>>>>>>>>>>>>>>>>>>>>>>>>>>>>>>>>>>>>>>>>>>>>>>>>>>>>>
 |                                                                    |
 | Setup plane waves of wave functions:                               |
 | Use the energy cutoff and the lattice vectors to generate the      |
 | dimensions of FFT grid. The number of FFT grid on each processor   |
 | is 'nrxx'. The number of plane wave basis in reciprocal space is   |
 | different for charege/potential and wave functions. We also set    |
 | the 'sticks' for the parallel of FFT. The number of plane wave of  |
 | each k-point is 'npwk[ik]' in each processor                       |
 <<<<<<<<<<<<<<<<<<<<<<<<<<<<<<<<<<<<<<<<<<<<<<<<<<<<<<<<<<<<<<<<<<<<<<





 SETUP PLANE WAVES FOR WAVE FUNCTIONS
     energy cutoff for wavefunc (unit:Ry) = 45
            [fft grid for wave functions] = 60, 60, 60
                    number of plane waves = 18949
                         number of sticks = 861

 PARALLEL PW FOR WAVE FUNCTIONS
     PROC   COLUMNS(POT)             PW
        1            861          18949
 --------------- sum -------------------
        1            861          18949
 DONE : INIT PLANEWAVE Time : 0.921906 (SEC)

                           occupied bands = 10
                                   NBANDS = 28
                                     npwx = 14030

 SETUP NONLOCAL PSEUDOPOTENTIALS IN PLANE WAVE BASIS
 Li non-local projectors:
 Mg non-local projectors:
      TOTAL NUMBER OF NONLOCAL PROJECTORS = 0

 nhm = 0, not allocate some matrix. DONE : LOCAL POTENTIAL Time : 1.86467 (SEC)


 Init Non-Local PseudoPotential table : 
 Init Non-Local-Pseudopotential done.
 DONE : NON-LOCAL POTENTIAL Time : 1.86483 (SEC)


 Make real space PAO into reciprocal space.
       max mesh points in Pseudopotential = 1601
     dq(describe PAO in reciprocal space) = 0.01
                                    max q = 810

 number of pseudo atomic orbitals for Li is 0

 number of pseudo atomic orbitals for Mg is 0
 DONE : INIT BASIS Time : 1.86495 (SEC)

Successful completion of Potential's registration : local
Successful completion of Potential's registration : hartree
Successful completion of Potential's registration : xc
                                 init_chg = atomic
 DONE : INIT SCF Time : 2.51905 (SEC)


 PW ALGORITHM --------------- ION=   1  ELEC=   1--------------------------------
Average iterative diagonalization steps: 8.51998 ; where current threshold is: 0.01 . 

 Density error is 0.536493828128
                          Error Threshold = 0.01

       Energy                       Rydberg                            eV
   E_KohnSham                -13.6047438963                 -185.10203682
     E_Harris                -13.3020577881                -180.983781043
      E_Fermi               +0.066841065157               +0.909419346524

 PW ALGORITHM --------------- ION=   1  ELEC=   2--------------------------------
Average iterative diagonalization steps: 2.65093537415 ; where current threshold is: 0.00268246914064 . 

 Density error is 0.030430344908
                          Error Threshold = 0.00268246914064

       Energy                       Rydberg                            eV
   E_KohnSham                -13.8580400547                -188.548307856
     E_Harris                -13.7497419607                -187.074836695
      E_Fermi              +0.0506790745279               +0.689524182946

 PW ALGORITHM --------------- ION=   1  ELEC=   3--------------------------------
Average iterative diagonalization steps: 4.30739795918 ; where current threshold is: 0.00015215172454 . 

 Density error is 0.00100982235578
                          Error Threshold = 0.00015215172454

       Energy                       Rydberg                            eV
   E_KohnSham                -13.8673654675                -188.675186606
     E_Harris                -13.8664458218                -188.662674185
      E_Fermi              +0.0452676998522               +0.615898653344

 PW ALGORITHM --------------- ION=   1  ELEC=   4--------------------------------
Average iterative diagonalization steps: 4.57270408163 ; where current threshold is: 5.04911177889e-06 . 

 Density error is 0.00160982341863
                          Error Threshold = 5.04911177889e-06

       Energy                       Rydberg                            eV
   E_KohnSham                -13.8673895557                -188.675514343
     E_Harris                -13.8681202448                -188.685455878
      E_Fermi              +0.0445867958091               +0.606634478566

 PW ALGORITHM --------------- ION=   1  ELEC=   5--------------------------------
Average iterative diagonalization steps: 2.88945578231 ; where current threshold is: 5.04911177889e-06 . 

 Density error is 0.000384775978231
                          Error Threshold = 5.04911177889e-06

       Energy                       Rydberg                            eV
   E_KohnSham                -13.8678019093                -188.681124702
     E_Harris                -13.8679269283                -188.682825673
      E_Fermi              +0.0446253080742               +0.607158464815

 PW ALGORITHM --------------- ION=   1  ELEC=   6--------------------------------
Average iterative diagonalization steps: 2.27763605442 ; where current threshold is: 1.92387989115e-06 . 

 Density error is 9.39240037826e-07
                          Error Threshold = 1.92387989115e-06

       Energy                       Rydberg                            eV
   E_KohnSham                -13.8678604395                -188.681921046
     E_Harris                -13.8678604714                 -188.68192148
      E_Fermi              +0.0446690206088                +0.60775320436

 PW ALGORITHM --------------- ION=   1  ELEC=   7--------------------------------
Average iterative diagonalization steps: 5.96598639456 ; where current threshold is: 4.69620018913e-09 . 

 Density error is 3.74873678331e-07
                          Error Threshold = 4.69620018913e-09

       Energy                       Rydberg                            eV
   E_KohnSham                -13.8678618201                -188.681939829
     E_Harris                -13.8678619086                -188.681941034
      E_Fermi              +0.0446635017225               +0.607678116059

 PW ALGORITHM --------------- ION=   1  ELEC=   8--------------------------------
Average iterative diagonalization steps: 2.12244897959 ; where current threshold is: 1.87436839166e-09 . 

 Density error is 3.40795000553e-08
                          Error Threshold = 1.87436839166e-09

       Energy                       Rydberg                            eV
   E_KohnSham                -13.8678618432                -188.681940144
     E_Harris                -13.8678618512                -188.681940254
      E_Fermi              +0.0446588137378               +0.607614332755

 PW ALGORITHM --------------- ION=   1  ELEC=   9--------------------------------
Average iterative diagonalization steps: 3.62797619048 ; where current threshold is: 1.70397500277e-10 . 

 Density error is 1.86744751054e-09
                          Error Threshold = 1.70397500277e-10

       Energy                       Rydberg                            eV
   E_KohnSham                -13.8678618478                -188.681940208
     E_Harris                -13.8678618483                -188.681940214
      E_Fermi              +0.0446579168607               +0.607602130116

 PW ALGORITHM --------------- ION=   1  ELEC=  10--------------------------------
Average iterative diagonalization steps: 3.91879251701 ; where current threshold is: 9.33723755268e-12 . 

 Density error is 1.91277880225e-11
                          Error Threshold = 9.33723755268e-12

       Energy                       Rydberg                            eV
   E_KohnSham                -13.8678618487                 -188.68194022
     E_Harris                -13.8678618487                 -188.68194022
       E_band                 -2.0305290478                -27.6267650046
   E_one_elec                +6.99818137657                +95.2151423588
    E_Hartree               +0.234354928266                +3.18856237879
         E_xc                -7.30664270885                -99.4119740905
      E_Ewald                -13.7912520397                -187.639610294
      E_demet             -0.00250340503207               -0.034060572838
      E_descf                            +0                            +0
        E_exx                            +0                            +0
      E_Fermi               +0.044657742054               +0.607599751749

 charge density convergence is achieved
 final etot is -188.68194022 eV

 STATE ENERGY(eV) AND OCCUPATIONS    NSPIN == 1
 1/84 kpoint (Cartesian) = 0 0 0 (13949 pws)
       1       -4.28695     0.00115741
       2       -1.97151     0.00115741
       3       -1.97151     0.00115741
       4       -1.97151     0.00115741
       5       -1.28900     0.00115741
       6       -1.28900     0.00115741
       7       -1.28900     0.00115741
       8       0.906493    1.55593e-08
       9       0.906493    1.55593e-08
      10       0.906493    1.55593e-08
      11       0.906495    1.55580e-08
      12       0.906495    1.55580e-08
      13       0.906495    1.55580e-08
      14        1.35507        0.00000
      15        1.35507        0.00000
      16        1.35507        0.00000
      17        2.04754        0.00000
      18        2.04754        0.00000
      19        2.04754        0.00000
      20        3.13737        0.00000
      21        3.13737        0.00000
      22        3.13737        0.00000
      23        4.08519        0.00000
      24        4.08519        0.00000
      25        4.08519        0.00000
      26        4.20039        0.00000
      27        5.61940        0.00000
      28        6.53607        0.00000

 2/84 kpoint (Cartesian) = 0.916667 0.00000 0.00000 (13942 pws)
       1       -4.26851     0.00694444
       2       -2.16348     0.00694444
       3       -1.95913     0.00694444
       4       -1.95913     0.00694444
       5       -1.27049     0.00694444
       6       -1.27049     0.00694444
       7       -1.06708     0.00694444
       8       0.666833     0.00140765
       9       0.666834     0.00140762
      10       0.766952    8.75013e-05
      11       0.766952    8.75013e-05
      12       0.924962    2.87551e-08
      13       0.924962    2.87551e-08
      14        1.38068        0.00000
      15        1.63758        0.00000
      16        1.63758        0.00000
      17        2.06575        0.00000
      18        2.22447        0.00000
      19        2.22447        0.00000
      20        2.98254        0.00000
      21        2.98254        0.00000
      22        2.98259        0.00000
      23        3.97934        0.00000
      24        4.27154        0.00000
      25        4.27154        0.00000
      26        4.37807        0.00000
      27        5.76273        0.00000
      28        5.85238        0.00000

 3/84 kpoint (Cartesian) = 0.833333 0.00000 0.00000 (13950 pws)
       1       -4.21322     0.00694444
       2       -2.49147     0.00694444
       3       -1.92342     0.00694444
       4       -1.92342     0.00694444
       5       -1.21499     0.00694444
       6       -1.21499     0.00694444
       7      -0.651009     0.00694444
       8       0.330502     0.00694410
       9       0.330503     0.00694410
      10       0.480477     0.00668693
      11       0.480477     0.00668693
      12       0.980332    5.71276e-10
      13       0.980332    5.71276e-10
      14        1.45919        0.00000
      15        2.10364        0.00000
      16        2.10364        0.00000
      17        2.12030        0.00000
      18        2.62308        0.00000
      19        2.62308        0.00000
      20        2.66763        0.00000
      21        2.68233        0.00000
      22        2.68233        0.00000
      23        3.73769        0.00000
      24        4.66460        0.00000
      25        4.66460        0.00000
      26        4.70274        0.00000
      27        5.17524        0.00000
      28        6.11679        0.00000

 4/84 kpoint (Cartesian) = 0.750000 0.00000 0.00000 (13982 pws)
       1       -4.12116     0.00694444
       2       -2.81828     0.00694444
       3       -1.86926     0.00694444
       4       -1.86925     0.00694444
       5       -1.12263     0.00694444
       6       -1.12263     0.00694444
       7      -0.183974     0.00694444
       8      0.0302523     0.00694444
       9      0.0302534     0.00694444
      10       0.170488     0.00694444
      11       0.170488     0.00694444
      12        1.07249    2.28338e-13
      13        1.07249    2.28338e-13
      14        1.59630        0.00000
      15        2.21100        0.00000
      16        2.31809        0.00000
      17        2.36694        0.00000
      18        2.36694        0.00000
      19        2.62449        0.00000
      20        2.62450        0.00000
      21        3.11986        0.00000
      22        3.11986        0.00000
      23        3.45634        0.00000
      24        4.29604        0.00000
      25        5.12822        0.00000
      26        5.12822        0.00000
      27        5.34349        0.00000
      28        6.58536        0.00000

 5/84 kpoint (Cartesian) = 0.666667 0.00000 0.00000 (13950 pws)
       1       -3.99249     0.00694444
       2       -3.12003     0.00694444
       3       -1.80674     0.00694444
       4       -1.80673     0.00694444
       5      -0.993608     0.00694444
       6      -0.993608     0.00694444
       7      -0.210823     0.00694444
       8      -0.210822     0.00694444
       9      -0.124468     0.00694444
      10      -0.124468     0.00694444
      11       0.297969     0.00694440
      12        1.20124    3.85494e-19
      13        1.20124    3.85494e-19
      14        1.80370        0.00000
      15        1.96231        0.00000
      16        2.07014        0.00000
      17        2.07014        0.00000
      18        2.33749        0.00000
      19        3.17891        0.00000
      20        3.18456        0.00000
      21        3.18456        0.00000
      22        3.63330        0.00000
      23        3.67608        0.00000
      24        3.67608        0.00000
      25        5.61569        0.00000
      26        5.61569        0.00000
      27        5.86543        0.00000
      28        5.87388        0.00000

 6/84 kpoint (Cartesian) = 0.583333 0.00000 0.00000 (13942 pws)
       1       -3.82747     0.00694444
       2       -3.39028     0.00694444
       3       -1.75345     0.00694444
       4       -1.75345     0.00694444
       5      -0.828322     0.00694444
       6      -0.828322     0.00694444
       7      -0.392051     0.00694444
       8      -0.392051     0.00694444
       9      -0.371965     0.00694444
      10      -0.371964     0.00694444
      11       0.768428    8.29181e-05
      12        1.36621        0.00000
      13        1.36621        0.00000
      14        1.59650        0.00000
      15        1.80211        0.00000
      16        1.80211        0.00000
      17        2.10047        0.00000
      18        2.49911        0.00000
      19        2.92258        0.00000
      20        3.02455        0.00000
      21        3.76942        0.00000
      22        3.76942        0.00000
      23        4.27914        0.00000
      24        4.27914        0.00000
      25        5.18394        0.00000
      26        5.18394        0.00000
      27        5.60703        0.00000
      28        5.60703        0.00000

 7/84 kpoint (Cartesian) = 0.00000 0.00000 0.500000 (14030 pws)
       1       -3.62650     0.00347222
       2       -3.62650     0.00347222
       3       -1.73179     0.00347222
       4       -1.73179     0.00347222
       5      -0.627418     0.00347222
       6      -0.627418     0.00347222
       7      -0.627418     0.00347222
       8      -0.627418     0.00347222
       9      -0.429673     0.00347222
      10      -0.429672     0.00347222
      11        1.20344    1.92747e-19
      12        1.20344    1.92747e-19
      13        1.56684        0.00000
      14        1.56684        0.00000
      15        1.56684        0.00000
      16        1.56684        0.00000
      17        2.50655        0.00000
      18        2.50655        0.00000
      19        2.69478        0.00000
      20        2.69478        0.00000
      21        4.20952        0.00000
      22        4.20952        0.00000
      23        4.70859        0.00000
      24        4.70859        0.00000
      25        4.92376        0.00000
      26        4.92376        0.00000
      27        4.92376        0.00000
      28        4.92376        0.00000

 8/84 kpoint (Cartesian) = 0.916667 0.916667 0.00000 (13925 pws)
       1       -4.25008      0.0138889
       2       -2.14900      0.0138889
       3       -2.14900      0.0138889
       4       -1.94748      0.0138889
       5       -1.25198      0.0138889
       6       -1.05187      0.0138889
       7       -1.05187      0.0138889
       8       0.359007      0.0138856
       9       0.689555     0.00173375
      10       0.689556     0.00173374
      11       0.785412    8.68295e-05
      12       0.785413    8.68255e-05
      13       0.943132    1.69515e-08
      14        1.62872        0.00000
      15        1.66009        0.00000
      16        1.66009        0.00000
      17        2.24268        0.00000
      18        2.24268        0.00000
      19        2.44590        0.00000
      20        2.65218        0.00000
      21        2.83318        0.00000
      22        3.15638        0.00000
      23        4.12309        0.00000
      24        4.16901        0.00000
      25        4.20309        0.00000
      26        4.68713        0.00000
      27        5.76430        0.00000
      28        5.90251        0.00000

 9/84 kpoint (Cartesian) = 0.916667 0.833333 0.00000 (13933 pws)
       1       -4.19481      0.0277778
       2       -2.47533      0.0277778
       3       -2.10653      0.0277778
       4       -1.91432      0.0277778
       5       -1.19648      0.0277778
       6       -1.00766      0.0277778
       7      -0.641970      0.0277778
       8      0.0169070      0.0277778
       9       0.359300      0.0277710
      10       0.498938      0.0260148
      11       0.759248    0.000460609
      12       0.801438    8.99285e-05
      13       0.840759    1.46741e-05
      14        1.72862        0.00000
      15        1.92195        0.00000
      16        2.12444        0.00000
      17        2.29722        0.00000
      18        2.29767        0.00000
      19        2.53800        0.00000
      20        2.64125        0.00000
      21        2.88077        0.00000
      22        3.02081        0.00000
      23        3.91375        0.00000
      24        4.37589        0.00000
      25        4.56157        0.00000
      26        4.97382        0.00000
      27        5.26910        0.00000
      28        6.02359        0.00000

 10/84 kpoint (Cartesian) = 0.916667 0.750000 0.00000 (13954 pws)
       1       -4.10280      0.0277778
       2       -2.80127      0.0277778
       3       -2.03945      0.0277778
       4       -1.86596      0.0277778
       5       -1.10412      0.0277778
       6      -0.939925      0.0277778
       7      -0.284906      0.0277778
       8      -0.187280      0.0277778
       9      0.0714406      0.0277778
      10       0.188954      0.0277778
      11       0.524947      0.0243659
      12       0.881609    1.64841e-06
      13       0.932874    6.80923e-08
      14        1.84672        0.00000
      15        1.95459        0.00000
      16        2.22492        0.00000
      17        2.38791        0.00000
      18        2.40142        0.00000
      19        2.64428        0.00000
      20        2.72919        0.00000
      21        3.13796        0.00000
      22        3.39254        0.00000
      23        3.63301        0.00000
      24        4.32667        0.00000
      25        4.82386        0.00000
      26        5.02967        0.00000
      27        5.63072        0.00000
      28        6.18543        0.00000

 11/84 kpoint (Cartesian) = 0.916667 0.666667 0.00000 (13966 pws)
       1       -3.97420      0.0277778
       2       -3.10251      0.0277778
       3       -1.95520      0.0277778
       4       -1.81581      0.0277778
       5      -0.975107      0.0277778
       6      -0.863376      0.0277778
       7      -0.527776      0.0277778
       8      -0.138663      0.0277778
       9      -0.105993      0.0277778
      10       0.251235      0.0277778
      11       0.265772      0.0277778
      12        1.06155    2.52036e-12
      13        1.06993    1.16113e-12
      14        1.63096        0.00000
      15        1.92924        0.00000
      16        2.02245        0.00000
      17        2.39957        0.00000
      18        2.51436        0.00000
      19        2.94929        0.00000
      20        3.20330        0.00000
      21        3.35566        0.00000
      22        3.68014        0.00000
      23        3.69409        0.00000
      24        3.95316        0.00000
      25        5.27839        0.00000
      26        5.53024        0.00000
      27        5.61646        0.00000
      28        5.88911        0.00000

 12/84 kpoint (Cartesian) = 0.916667 0.583333 0.00000 (13968 pws)
       1       -3.80927      0.0277778
       2       -3.37244      0.0277778
       3       -1.86854      0.0277778
       4       -1.78706      0.0277778
       5      -0.809825      0.0277778
       6      -0.806724      0.0277778
       7      -0.692533      0.0277778
       8      -0.373567      0.0277778
       9      -0.224619      0.0277778
      10      0.0144108      0.0277778
      11       0.673806     0.00489441
      12        1.22640        0.00000
      13        1.32355        0.00000
      14        1.34310        0.00000
      15        1.66179        0.00000
      16        2.05268        0.00000
      17        2.27234        0.00000
      18        2.67596        0.00000
      19        3.09696        0.00000
      20        3.09936        0.00000
      21        3.53682        0.00000
      22        3.78425        0.00000
      23        4.29700        0.00000
      24        4.54381        0.00000
      25        4.92631        0.00000
      26        5.20803        0.00000
      27        5.62433        0.00000
      28        5.73030        0.00000

 13/84 kpoint (Cartesian) = 0.916667 0.500000 0.00000 (13998 pws)
       1       -3.60845      0.0138889
       2       -3.60845      0.0138889
       3       -1.80430      0.0138889
       4       -1.80430      0.0138889
       5      -0.771642      0.0138889
       6      -0.771642      0.0138889
       7      -0.608926      0.0138889
       8      -0.608926      0.0138889
       9      -0.159549      0.0138889
      10      -0.159549      0.0138889
      11        1.01624    6.57849e-11
      12        1.01624    6.57844e-11
      13        1.42684        0.00000
      14        1.42684        0.00000
      15        1.68975        0.00000
      16        1.68975        0.00000
      17        2.62344        0.00000
      18        2.62344        0.00000
      19        2.87159        0.00000
      20        2.87159        0.00000
      21        4.08495        0.00000
      22        4.08495        0.00000
      23        4.57632        0.00000
      24        4.57632        0.00000
      25        4.94139        0.00000
      26        4.94139        0.00000
      27        5.23617        0.00000
      28        5.23617        0.00000

 14/84 kpoint (Cartesian) = 0.833333 0.833333 0.00000 (13937 pws)
       1       -4.13962      0.0138889
       2       -2.42741      0.0138889
       3       -2.42741      0.0138889
       4       -1.89028      0.0138889
       5       -1.14099      0.0138889
       6      -0.620547      0.0138889
       7      -0.620546      0.0138889
       8      -0.321050      0.0138889
       9       0.451500      0.0136921
      10       0.451501      0.0136921
      11       0.554278      0.0107370
      12       0.554279      0.0107369
      13        1.05282    2.78407e-12
      14        1.80482        0.00000
      15        1.93053        0.00000
      16        2.18729        0.00000
      17        2.18729        0.00000
      18        2.24758        0.00000
      19        2.69570        0.00000
      20        2.69570        0.00000
      21        3.19714        0.00000
      22        3.33751        0.00000
      23        4.23676        0.00000
      24        4.25965        0.00000
      25        4.39048        0.00000
      26        5.05600        0.00000
      27        5.18982        0.00000
      28        5.83743        0.00000

 15/84 kpoint (Cartesian) = 0.833333 0.750000 0.00000 (13965 pws)
       1       -4.04774      0.0277778
       2       -2.75051      0.0277778
       3       -2.34944      0.0277778
       4       -1.86285      0.0277778
       5       -1.04864      0.0277778
       6      -0.608862      0.0277778
       7      -0.601647      0.0277778
       8      -0.213007      0.0277778
       9       0.211001      0.0277778
      10       0.244315      0.0277778
      11       0.628781      0.0106399
      12       0.646383     0.00813772
      13       0.946574    2.67101e-08
      14        1.58615        0.00000
      15        1.93663        0.00000
      16        2.10460        0.00000
      17        2.29382        0.00000
      18        2.70383        0.00000
      19        2.78621        0.00000
      20        3.05876        0.00000
      21        3.19220        0.00000
      22        3.85759        0.00000
      23        4.02279        0.00000
      24        4.40898        0.00000
      25        4.51548        0.00000
      26        4.80283        0.00000
      27        5.31170        0.00000
      28        5.98262        0.00000

 16/84 kpoint (Cartesian) = 0.833333 0.666667 0.00000 (13969 pws)
       1       -3.91935      0.0277778
       2       -3.05012      0.0277778
       3       -2.24524      0.0277778
       4       -1.85591      0.0277778
       5      -0.919636      0.0277778
       6      -0.797144      0.0277778
       7      -0.648591      0.0277778
       8     -0.0506049      0.0277778
       9      0.0980063      0.0277778
      10       0.147471      0.0277778
      11       0.705022     0.00237749
      12       0.775029    0.000259506
      13       0.928220    9.28204e-08
      14        1.26847        0.00000
      15        1.64190        0.00000
      16        2.44774        0.00000
      17        2.61240        0.00000
      18        2.73581        0.00000
      19        2.91239        0.00000
      20        3.25939        0.00000
      21        3.74800        0.00000
      22        3.74989        0.00000
      23        3.83236        0.00000
      24        4.41947        0.00000
      25        4.83183        0.00000
      26        5.24981        0.00000
      27        5.32108        0.00000
      28        5.56735        0.00000

 17/84 kpoint (Cartesian) = 0.833333 0.583333 0.00000 (13984 pws)
       1       -3.75474      0.0277778
       2       -3.31902      0.0277778
       3       -2.12267      0.0277778
       4       -1.89943      0.0277778
       5      -0.878521      0.0277778
       6      -0.754369      0.0277778
       7      -0.748176      0.0277778
       8      -0.318155      0.0277778
       9       0.132060      0.0277778
      10       0.441398      0.0275060
      11       0.467975      0.0270854
      12       0.939837    4.25097e-08
      13       0.977030    2.93442e-09
      14        1.35229        0.00000
      15        1.37490        0.00000
      16        2.31951        0.00000
      17        2.65708        0.00000
      18        3.07357        0.00000
      19        3.19078        0.00000
      20        3.32310        0.00000
      21        3.49537        0.00000
      22        3.82404        0.00000
      23        4.35043        0.00000
      24        4.57655        0.00000
      25        4.96370        0.00000
      26        5.16712        0.00000
      27        5.30199        0.00000
      28        5.67594        0.00000

 18/84 kpoint (Cartesian) = 0.833333 0.500000 0.00000 (13990 pws)
       1       -3.55437      0.0138889
       2       -3.55437      0.0138889
       3       -1.99787      0.0138889
       4       -1.99786      0.0138889
       5      -0.847203      0.0138889
       6      -0.847203      0.0138889
       7      -0.553489      0.0138889
       8      -0.553488      0.0138889
       9       0.269006      0.0138889
      10       0.269006      0.0138889
      11       0.706437     0.00114614
      12       0.706437     0.00114614
      13        1.14017    5.13478e-16
      14        1.14017    5.13478e-16
      15        1.84012        0.00000
      16        1.84012        0.00000
      17        2.93893        0.00000
      18        2.93893        0.00000
      19        3.26859        0.00000
      20        3.26859        0.00000
      21        3.79048        0.00000
      22        3.79048        0.00000
      23        4.56704        0.00000
      24        4.56704        0.00000
      25        4.99412        0.00000
      26        4.99412        0.00000
      27        5.46192        0.00000
      28        5.46192        0.00000

 19/84 kpoint (Cartesian) = 0.750000 0.750000 0.00000 (13969 pws)
       1       -3.95611      0.0138889
       2       -2.66695      0.0138889
       3       -2.66695      0.0138889
       4       -1.88232      0.0138889
       5      -0.956295      0.0138889
       6      -0.833072      0.0138889
       7      -0.303030      0.0138889
       8      -0.303030      0.0138889
       9       0.336452      0.0138879
      10       0.336453      0.0138879
      11       0.488815      0.0132277
      12       0.488815      0.0132276
      13        1.23476        0.00000
      14        1.24368        0.00000
      15        1.62652        0.00000
      16        2.00319        0.00000
      17        2.80384        0.00000
      18        2.80384        0.00000
      19        3.18629        0.00000
      20        3.28234        0.00000
      21        3.28234        0.00000
      22        4.30829        0.00000
      23        4.38036        0.00000
      24        4.42618        0.00000
      25        4.54501        0.00000
      26        4.61090        0.00000
      27        4.79396        0.00000
      28        5.63115        0.00000

 20/84 kpoint (Cartesian) = 0.750000 0.666667 0.00000 (13954 pws)
       1       -3.82809      0.0277778
       2       -2.96341      0.0277778
       3       -2.55259      0.0277778
       4       -1.95601      0.0277778
       5      -0.943880      0.0277778
       6      -0.827313      0.0277778
       7      -0.467042      0.0277778
       8     -0.0581920      0.0277778
       9      0.0415773      0.0277778
      10       0.465143      0.0271473
      11       0.491396      0.0263524
      12       0.908973    3.20012e-07
      13       0.930651    7.89975e-08
      14        1.16452    7.24729e-17
      15        1.33207        0.00000
      16        2.33319        0.00000
      17        2.94582        0.00000
      18        2.96688        0.00000
      19        3.35235        0.00000
      20        3.40793        0.00000
      21        3.83755        0.00000
      22        4.08778        0.00000
      23        4.23413        0.00000
      24        4.37932        0.00000
      25        4.90572        0.00000
      26        4.93922        0.00000
      27        5.05433        0.00000
      28        5.06616        0.00000

 21/84 kpoint (Cartesian) = 0.750000 0.583333 0.00000 (13991 pws)
       1       -3.66404      0.0277778
       2       -3.23039      0.0277778
       3       -2.41138      0.0277778
       4       -2.08939      0.0277778
       5      -0.928288      0.0277778
       6      -0.662073      0.0277778
       7      -0.654652      0.0277778
       8      -0.225928      0.0277778
       9       0.163174      0.0277778
      10       0.593942      0.0160018
      11       0.630000      0.0104588
      12       0.647863     0.00794024
      13       0.958705    1.13198e-08
      14        1.06513    1.81271e-12
      15        1.41918        0.00000
      16        2.51221        0.00000
      17        2.87297        0.00000
      18        3.13310        0.00000
      19        3.56818        0.00000
      20        3.68247        0.00000
      21        3.85783        0.00000
      22        3.98587        0.00000
      23        4.29326        0.00000
      24        4.43908        0.00000
      25        4.55076        0.00000
      26        5.02359        0.00000
      27        5.23924        0.00000
      28        5.53797        0.00000

 22/84 kpoint (Cartesian) = 0.750000 0.500000 0.00000 (13958 pws)
       1       -3.46449      0.0138889
       2       -3.46449      0.0138889
       3       -2.25139      0.0138889
       4       -2.25139      0.0138889
       5      -0.819517      0.0138889
       6      -0.819517      0.0138889
       7      -0.461223      0.0138889
       8      -0.461222      0.0138889
       9       0.393812      0.0138703
      10       0.393813      0.0138703
      11       0.757414    0.000245480
      12       0.757414    0.000245479
      13       0.830377    1.21727e-05
      14       0.830377    1.21724e-05
      15        1.96954        0.00000
      16        1.96954        0.00000
      17        3.37307        0.00000
      18        3.37307        0.00000
      19        3.47575        0.00000
      20        3.47575        0.00000
      21        3.76171        0.00000
      22        3.76171        0.00000
      23        4.63804        0.00000
      24        4.63804        0.00000
      25        4.77010        0.00000
      26        4.77010        0.00000
      27        5.08137        0.00000
      28        5.08137        0.00000

[...]
      16        2.15441        0.00000
      17        3.11853        0.00000
      18        3.11853        0.00000
      19        3.33672        0.00000
      20        3.33672        0.00000
      21        3.82711        0.00000
      22        3.82711        0.00000
      23        4.13971        0.00000
      24        4.13971        0.00000
      25        4.60385        0.00000
      26        4.60385        0.00000
      27        5.42415        0.00000
      28        5.42415        0.00000

 72/84 kpoint (Cartesian) = 0.750000 0.583333 0.583333 (13973 pws)
       1       -3.21997      0.0277778
       2       -2.81286      0.0277778
       3       -2.81286      0.0277778
       4       -2.48775      0.0277778
       5       -1.60121      0.0277778
       6       -1.27496      0.0277778
       7       -1.27496      0.0277778
       8      -0.863965      0.0277778
       9       0.879178    1.89397e-06
      10        1.25373        0.00000
      11        1.25373        0.00000
      12        1.71780        0.00000
      13        1.84087        0.00000
      14        1.84087        0.00000
      15        1.95667        0.00000
      16        2.63073        0.00000
      17        2.77460        0.00000
      18        3.32852        0.00000
      19        3.32852        0.00000
      20        3.56519        0.00000
      21        3.74763        0.00000
      22        3.78281        0.00000
      23        3.78281        0.00000
      24        4.00831        0.00000
      25        4.43316        0.00000
      26        4.80989        0.00000
      27        4.96663        0.00000
      28        4.96663        0.00000

 73/84 kpoint (Cartesian) = 0.750000 0.583333 0.500000 (13964 pws)
       1       -3.03002      0.0277778
       2       -3.03002      0.0277778
       3       -2.64858      0.0277778
       4       -2.64858      0.0277778
       5       -1.47536      0.0277778
       6       -1.47536      0.0277778
       7       -1.09160      0.0277778
       8       -1.09160      0.0277778
       9        1.06435    1.94732e-12
      10        1.06435    1.94722e-12
      11        1.48506        0.00000
      12        1.48506        0.00000
      13        1.96211        0.00000
      14        1.96211        0.00000
      15        2.31942        0.00000
      16        2.31942        0.00000
      17        3.14663        0.00000
      18        3.14663        0.00000
      19        3.47710        0.00000
      20        3.47711        0.00000
      21        3.65660        0.00000
      22        3.65660        0.00000
      23        3.95193        0.00000
      24        3.95193        0.00000
      25        4.42512        0.00000
      26        4.42512        0.00000
      27        4.83151        0.00000
      28        4.83151        0.00000

 74/84 kpoint (Cartesian) = 0.750000 0.500000 0.500000 (14012 pws)
       1       -2.84849     0.00694444
       2       -2.84849     0.00694444
       3       -2.84849     0.00694444
       4       -2.84849     0.00694444
       5       -1.31002     0.00694444
       6       -1.31002     0.00694444
       7       -1.31002     0.00694444
       8       -1.31002     0.00694444
       9        1.26794        0.00000
      10        1.26794        0.00000
      11        1.26794        0.00000
      12        1.26794        0.00000
      13        2.30883        0.00000
      14        2.30883        0.00000
      15        2.30883        0.00000
      16        2.30883        0.00000
      17        3.15582        0.00000
      18        3.15582        0.00000
      19        3.15582        0.00000
      20        3.15582        0.00000
      21        4.00213        0.00000
      22        4.00213        0.00000
      23        4.00213        0.00000
      24        4.00213        0.00000
      25        4.36001        0.00000
      26        4.36001        0.00000
      27        4.36001        0.00000
      28        4.36001        0.00000

 75/84 kpoint (Cartesian) = 0.666667 0.666667 0.666667 (13979 pws)
       1       -3.41453     0.00925926
       2       -2.61288     0.00925926
       3       -2.61288     0.00925926
       4       -2.61288     0.00925926
       5       -1.44071     0.00925926
       6       -1.44070     0.00925926
       7       -1.44070     0.00925926
       8      -0.630610     0.00925926
       9        1.08532    8.99687e-14
      10        1.08532    8.99589e-14
      11        1.08532    8.99589e-14
      12        1.76861        0.00000
      13        1.76861        0.00000
      14        1.76862        0.00000
      15        2.53151        0.00000
      16        2.53151        0.00000
      17        2.60594        0.00000
      18        2.60594        0.00000
      19        2.60594        0.00000
      20        3.49181        0.00000
      21        3.88299        0.00000
      22        3.88299        0.00000
      23        4.66403        0.00000
      24        4.66403        0.00000
      25        4.66403        0.00000
      26        4.84493        0.00000
      27        4.93173        0.00000
      28        4.93173        0.00000

 76/84 kpoint (Cartesian) = 0.666667 0.666667 0.583333 (13989 pws)
       1       -3.25601      0.0277778
       2       -2.84798      0.0277778
       3       -2.52120      0.0277778
       4       -2.52119      0.0277778
       5       -1.63876      0.0277778
       6       -1.63875      0.0277778
       7       -1.31067      0.0277778
       8      -0.898591      0.0277778
       9        1.21561        0.00000
      10        1.21561        0.00000
      11        1.61322        0.00000
      12        1.76882        0.00000
      13        1.76882        0.00000
      14        1.92322        0.00000
      15        2.31406        0.00000
      16        2.47604        0.00000
      17        2.81612        0.00000
      18        2.94012        0.00000
      19        2.94012        0.00000
      20        3.47066        0.00000
      21        3.70103        0.00000
      22        3.99706        0.00000
      23        4.12576        0.00000
      24        4.12576        0.00000
      25        4.39672        0.00000
      26        4.54383        0.00000
      27        4.89255        0.00000
      28        4.92625        0.00000

 77/84 kpoint (Cartesian) = 0.666667 0.666667 0.500000 (13990 pws)
       1       -3.06570      0.0138889
       2       -3.06570      0.0138889
       3       -2.47840      0.0138889
       4       -2.47840      0.0138889
       5       -1.71714      0.0138889
       6       -1.71714      0.0138889
       7       -1.12678      0.0138889
       8       -1.12678      0.0138889
       9        1.28267        0.00000
      10        1.28267        0.00000
      11        1.71205        0.00000
      12        1.71205        0.00000
      13        2.10561        0.00000
      14        2.10561        0.00000
      15        2.10708        0.00000
      16        2.10708        0.00000
      17        3.10184        0.00000
      18        3.10184        0.00000
      19        3.38003        0.00000
      20        3.38003        0.00000
      21        3.62023        0.00000
      22        3.62023        0.00000
      23        4.11173        0.00000
      24        4.11173        0.00000
      25        4.17231        0.00000
      26        4.17231        0.00000
      27        4.96289        0.00000
      28        4.96289        0.00000

 78/84 kpoint (Cartesian) = 0.666667 0.583333 0.583333 (13981 pws)
       1       -3.10169      0.0277778
       2       -2.71810      0.0277778
       3       -2.71810      0.0277778
       4       -2.51253      0.0277778
       5       -1.75429      0.0277778
       6       -1.54807      0.0277778
       7       -1.54807      0.0277778
       8       -1.16189      0.0277778
       9        1.39889        0.00000
      10        1.66723        0.00000
      11        1.66723        0.00000
      12        2.00267        0.00000
      13        2.00267        0.00000
      14        2.06914        0.00000
      15        2.18602        0.00000
      16        2.59727        0.00000
      17        2.91909        0.00000
      18        3.12303        0.00000
      19        3.12303        0.00000
      20        3.56046        0.00000
      21        3.60323        0.00000
      22        3.74323        0.00000
      23        3.86162        0.00000
      24        3.86162        0.00000
      25        4.13888        0.00000
      26        4.43259        0.00000
      27        4.50282        0.00000
      28        4.50282        0.00000

 79/84 kpoint (Cartesian) = 0.666667 0.583333 0.500000 (13976 pws)
       1       -2.91931      0.0277778
       2       -2.91931      0.0277778
       3       -2.59039      0.0277778
       4       -2.59039      0.0277778
       5       -1.71194      0.0277778
       6       -1.71194      0.0277778
       7       -1.38153      0.0277778
       8       -1.38153      0.0277778
       9        1.56331        0.00000
      10        1.56331        0.00000
      11        1.96466        0.00000
      12        1.96466        0.00000
      13        2.08555        0.00000
      14        2.08555        0.00000
      15        2.36667        0.00000
      16        2.36667        0.00000
      17        3.26533        0.00000
      18        3.26533        0.00000
      19        3.35830        0.00000
      20        3.35830        0.00000
      21        3.65222        0.00000
      22        3.65222        0.00000
      23        3.67535        0.00000
      24        3.67535        0.00000
      25        4.05462        0.00000
      26        4.05462        0.00000
      27        4.44177        0.00000
      28        4.44177        0.00000

 80/84 kpoint (Cartesian) = 0.666667 0.500000 0.500000 (14008 pws)
       1       -2.75344     0.00694444
       2       -2.75343     0.00694444
       3       -2.75343     0.00694444
       4       -2.75343     0.00694444
       5       -1.58411     0.00694444
       6       -1.58411     0.00694444
       7       -1.58411     0.00694444
       8       -1.58411     0.00694444
       9        1.77482        0.00000
      10        1.77482        0.00000
      11        1.77482        0.00000
      12        1.77482        0.00000
      13        2.38976        0.00000
      14        2.38976        0.00000
      15        2.38976        0.00000
      16        2.38976        0.00000
      17        3.27803        0.00000
      18        3.27803        0.00000
      19        3.27803        0.00000
      20        3.27803        0.00000
      21        3.74104        0.00000
      22        3.74104        0.00000
      23        3.74105        0.00000
      24        3.74105        0.00000
      25        3.99574        0.00000
      26        3.99574        0.00000
      27        3.99574        0.00000
      28        3.99574        0.00000

 81/84 kpoint (Cartesian) = 0.583333 0.583333 0.583333 (13995 pws)
       1       -2.95500     0.00925926
       2       -2.62499     0.00925926
       3       -2.62499     0.00925926
       4       -2.62499     0.00925926
       5       -1.74892     0.00925926
       6       -1.74892     0.00925926
       7       -1.74892     0.00925926
       8       -1.41734     0.00925926
       9        1.91400        0.00000
      10        1.91400        0.00000
      11        1.91400        0.00000
      12        2.20622        0.00000
      13        2.20622        0.00000
      14        2.20622        0.00000
      15        2.49926        0.00000
      16        2.49926        0.00000
      17        3.11014        0.00000
      18        3.11014        0.00000
      19        3.11014        0.00000
      20        3.44641        0.00000
      21        3.59431        0.00000
      22        3.59431        0.00000
      23        3.89106        0.00000
      24        3.89106        0.00000
      25        3.89106        0.00000
      26        4.04285        0.00000
      27        4.04285        0.00000
      28        4.04285        0.00000

 82/84 kpoint (Cartesian) = 0.583333 0.500000 0.583333 (14006 pws)
       1       -2.78867      0.0138889
       2       -2.78866      0.0138889
       3       -2.58130      0.0138889
       4       -2.58130      0.0138889
       5       -1.82862      0.0138889
       6       -1.82862      0.0138889
       7       -1.62053      0.0138889
       8       -1.62053      0.0138889
       9        2.00069        0.00000
      10        2.00069        0.00000
      11        2.26368        0.00000
      12        2.26368        0.00000
      13        2.35547        0.00000
      14        2.35547        0.00000
      15        2.35704        0.00000
      16        2.35704        0.00000
      17        3.34740        0.00000
      18        3.34740        0.00000
      19        3.37606        0.00000
      20        3.37606        0.00000
      21        3.50774        0.00000
      22        3.50774        0.00000
      23        3.65405        0.00000
      24        3.65405        0.00000
      25        3.70197        0.00000
      26        3.70197        0.00000
      27        4.02519        0.00000
      28        4.02519        0.00000

 83/84 kpoint (Cartesian) = 0.583333 0.500000 0.500000 (13976 pws)
       1       -2.65991     0.00694444
       2       -2.65990     0.00694444
       3       -2.65990     0.00694444
       4       -2.65990     0.00694444
       5       -1.78573     0.00694444
       6       -1.78573     0.00694444
       7       -1.78573     0.00694444
       8       -1.78573     0.00694444
       9        2.24686        0.00000
      10        2.24686        0.00000
      11        2.24686        0.00000
      12        2.24686        0.00000
      13        2.46374        0.00000
      14        2.46374        0.00000
      15        2.46374        0.00000
      16        2.46375        0.00000
      17        3.40893        0.00000
      18        3.40893        0.00000
      19        3.40893        0.00000
      20        3.40893        0.00000
      21        3.55802        0.00000
      22        3.55802        0.00000
      23        3.55802        0.00000
      24        3.55802        0.00000
      25        3.64799        0.00000
      26        3.64799        0.00000
      27        3.64799        0.00000
      28        3.64799        0.00000

 84/84 kpoint (Cartesian) = 0.500000 0.500000 0.500000 (13992 pws)
       1       -2.61594     0.00115741
       2       -2.61594     0.00115741
       3       -2.61594     0.00115741
       4       -2.61594     0.00115741
       5       -1.86582     0.00115741
       6       -1.86582     0.00115741
       7       -1.86582     0.00115741
       8       -1.86582     0.00115741
       9        2.49579        0.00000
      10        2.49579        0.00000
      11        2.49579        0.00000
      12        2.49579        0.00000
      13        2.49579        0.00000
      14        2.49579        0.00000
      15        2.49579        0.00000
      16        2.49579        0.00000
      17        3.43660        0.00000
      18        3.43660        0.00000
      19        3.43660        0.00000
      20        3.43660        0.00000
      21        3.48951        0.00000
      22        3.48951        0.00000
      23        3.48951        0.00000
      24        3.48951        0.00000
      25        3.48951        0.00000
      26        3.48951        0.00000
      27        3.48951        0.00000
      28        3.48951        0.00000



 --------------------------------------------
 !FINAL_ETOT_IS -188.6819402196911 eV
 --------------------------------------------






  |CLASS_NAME---------|NAME---------------|TIME(Sec)-----|CALLS----|AVG------|PER%-------
                                      total         3920.7        17   2.3e+02   1.0e+02%
                 Driver         driver_line         3920.7         1   3.9e+03    1.e+02%
               PW_Basis      setuptransform        0.63381         1      0.63     0.016%
             PW_Basis_K      setuptransform        0.11838         1      0.12    0.0030%
               PW_Basis  setup_struc_factor        0.83292         1      0.83     0.021%
          ESolver_KS_PW                 Run         3918.8         1   3.9e+03    1.e+02%
                 Charge          atomic_rho        0.11944         1      0.12    0.0030%
               PW_Basis          recip2real         1.3920        68     0.020     0.036%
               PW_Basis    gathers_scatterp        0.27458        68    0.0040    0.0070%
              Potential            init_pot        0.49812         1      0.50     0.013%
              Potential  update_from_charge         5.8574        11      0.53      0.15%
              Potential           cal_v_eff         5.8383        11      0.53      0.15%
           H_Hartree_pw           v_hartree        0.55993        11     0.051     0.014%
               PW_Basis          real2recip         1.9529       108     0.018     0.050%
               PW_Basis    gatherp_scatters        0.26141       108    0.0024    0.0067%
                  PotXC           cal_v_eff         5.2375        11      0.48      0.13%
          XC_Functional                v_xc         2353.9         6   3.9e+02       60.%
          XC_Functional          v_xc_libxc         5.2015        11      0.47      0.13%
               Symmetry        rho_symmetry        0.22679        11     0.021    0.0058%
              HSolverPW               solve         3911.2        10   3.9e+02    1.e+02%
              WF_atomic          atomic_wfc        0.59581        84    0.0071     0.015%
                 WF_igk              get_sk        0.51377      1344   0.00038     0.013%
        DiagoIterAssist      diagH_subspace         640.48       840      0.76       16.%
             OperatorPW                hPsi         3121.4     96926     0.032       80.%
               Operator          EkineticPW         19.075     96926   0.00020      0.49%
               Operator              VeffPW         3095.3     96926     0.032       79.%
             PW_Basis_K          recip2real         1573.8    129359     0.012       40.%
             PW_Basis_K    gathers_scatterp         296.13    129359    0.0023       7.6%
             PW_Basis_K          real2recip         1309.7    119606     0.011       33.%
             PW_Basis_K    gatherp_scatters         81.968    119606   0.00069       2.1%
               Operator          NonlocalPW        0.25675     96926   2.6e-06    0.0065%
        DiagoIterAssist     LAPACK_subspace        0.47456       840   0.00056     0.012%
                DiagoCG           diag_once         3114.6       840       3.7       79.%
            ElecStatePW            psiToRho         149.43        10       15.       3.8%
                 Charge             mix_rho        0.75950         9     0.084     0.019%
 ----------------------------------------------------------------------------------------

 CLASS_NAME---------|NAME---------------|MEMORY(MB)--------
                                         557.6
             wavefunc                 psi          503.5
        Charge_Mixing                Rrho          13.18
        Charge_Mixing               dRrho          11.54
        Charge_Mixing                drho          11.54
             PW_Basis           struc_fac          3.414
               Charge                 rho          1.648
               Charge            rho_save          1.648
               Charge            rho_core          1.648
            Potential   v_effective_fixed          1.648
            Potential              vr_eff          1.648
        Charge_Mixing           rho_save2          1.648
 ----------------------------------------------------------

 Start  Time  : Mon Mar  6 13:58:28 2023
 Finish Time  : Mon Mar  6 15:03:48 2023
 Total  Time  : 1 h 5 mins 20 secs 
