                                                                                     
                             WELCOME TO ABACUS v3.0                                  
                                                                                     
               'Atomic-orbital Based Ab-initio Computation at UStc'                  
                                                                                     
                     Website: http://abacus.ustc.edu.cn/                             
                                                                                     
    Version: Parallel, in development
    Processor Number is 1
    Start Time is Mon May 15 11:33:46 2023
                                                                                     
 ------------------------------------------------------------------------------------

 READING GENERAL INFORMATION
                           global_out_dir = OUT.oftest/
                           global_in_card = INPUT
                               pseudo_dir = 
                              orbital_dir = 
                                    DRANK = 1
                                    DSIZE = 1
                                   DCOLOR = 1
                                    GRANK = 1
                                    GSIZE = 1
 The esolver type has been set to : ofdft




 >>>>>>>>>>>>>>>>>>>>>>>>>>>>>>>>>>>>>>>>>>>>>>>>>>>>>>>>>>>>>>>>>>>>>>
 |                                                                    |
 | Reading atom information in unitcell:                              |
 | From the input file and the structure file we know the number of   |
 | different elments in this unitcell, then we list the detail        |
 | information for each element, especially the zeta and polar atomic |
 | orbital number for each element. The total atom number is counted. |
 | We calculate the nearest atom distance for each atom and show the  |
 | Cartesian and Direct coordinates for each atom. We list the file   |
 | address for atomic orbitals. The volume and the lattice vectors    |
 | in real and reciprocal space is also shown.                        |
 |                                                                    |
 <<<<<<<<<<<<<<<<<<<<<<<<<<<<<<<<<<<<<<<<<<<<<<<<<<<<<<<<<<<<<<<<<<<<<<




 READING UNITCELL INFORMATION
                                    ntype = 2
                 atom label for species 1 = Mg
                 atom label for species 2 = Al
                  lattice constant (Bohr) = 1.88973
              lattice constant (Angstrom) = 1

 READING ATOM TYPE 1
                               atom label = Mg
                      L=0, number of zeta = 1
                      L=1, number of zeta = 1
                      L=2, number of zeta = 1
             number of atom for this type = 3
                      start magnetization = FALSE
                      start magnetization = FALSE
                      start magnetization = FALSE

 READING ATOM TYPE 2
                               atom label = Al
                      L=0, number of zeta = 1
                      L=1, number of zeta = 1
                      L=2, number of zeta = 1
             number of atom for this type = 3
                      start magnetization = FALSE
                      start magnetization = FALSE
                      start magnetization = FALSE

                        TOTAL ATOM NUMBER = 6

 DIRECT COORDINATES
         atom                   x                   y                   z                 mag                  vx                  vy                  vz
     taud_Mg1            0.333333            0.666667            0.166667                   0                   0                   0                   0
     taud_Mg2                   0                   0                 0.5                   0                   0                   0                   0
     taud_Mg3            0.666667            0.333333            0.833333                   0                   0                   0                   0
     taud_Al1                   0                   0                   0                   0                   0                   0                   0
     taud_Al2            0.666667            0.333333            0.333333                   0                   0                   0                   0
     taud_Al3            0.333333            0.666667            0.666667                   0                   0                   0                   0


                          Volume (Bohr^3) = 784.153
                             Volume (A^3) = 116.199

 Lattice vectors: (Cartesian coordinate: in unit of a_0)
             +1.49471            -2.58891                  +0
             +1.49471            +2.58891                  +0
                   +0                  +0            +15.0141
 Reciprocal vectors: (Cartesian coordinate: in unit of 2 pi/a_0)
            +0.334513           -0.193131                  +0
            +0.334513           +0.193131                  -0
                   -0                  -0           +0.066604




 >>>>>>>>>>>>>>>>>>>>>>>>>>>>>>>>>>>>>>>>>>>>>>>>>>>>>>>>>>>>>>>>>>>>>>
 |                                                                    |
 | Reading pseudopotentials files:                                    |
 | The pseudopotential file is in UPF format. The 'NC' indicates that |
 | the type of pseudopotential is 'norm conserving'. Functional of    |
 | exchange and correlation is decided by 4 given parameters in UPF   |
 | file.  We also read in the 'core correction' if there exists.      |
 | Also we can read the valence electrons number and the maximal      |
 | angular momentum used in this pseudopotential. We also read in the |
 | trail wave function, trail atomic density and local-pseudopotential|
 | on logrithmic grid. The non-local pseudopotential projector is also|
 | read in if there is any.                                           |
 |                                                                    |
 <<<<<<<<<<<<<<<<<<<<<<<<<<<<<<<<<<<<<<<<<<<<<<<<<<<<<<<<<<<<<<<<<<<<<<




                PAO radial cut off (Bohr) = 16

 Read in pseudopotential file is mg.gga.psp
                     pseudopotential type = 
          exchange-correlation functional = XC_GGA_X_PBE+XC_GGA_C_PBE
                 nonlocal core correction = 0
                        valence electrons = 2
                                     lmax = 0
                           number of zeta = 0
                     number of projectors = 0
                PAO radial cut off (Bohr) = 16

 Read in pseudopotential file is al.gga.psp
                     pseudopotential type = 
          exchange-correlation functional = XC_GGA_X_PBE+XC_GGA_C_PBE
                 nonlocal core correction = 0
                        valence electrons = 3
                                     lmax = 0
                           number of zeta = 0
                     number of projectors = 0
Notice: symbol 'mg_locpsp' is not an element symbol!!!! set the covalent radius to be 0.
Notice: symbol 'al_locpsp' is not an element symbol!!!! set the covalent radius to be 0.
     initial pseudo atomic orbital number = 0
                                   NLOCAL = 54




 >>>>>>>>>>>>>>>>>>>>>>>>>>>>>>>>>>>>>>>>>>>>>>>>>>>>>>>>>>>>>>>>>>>>>>
 |                                                                    |
 | Setup plane waves of charge/potential:                             |
 | Use the energy cutoff and the lattice vectors to generate the      |
 | dimensions of FFT grid. The number of FFT grid on each processor   |
 | is 'nrxx'. The number of plane wave basis in reciprocal space is   |
 | different for charege/potential and wave functions. We also set    |
 | the 'sticks' for the parallel of FFT. The number of plane waves    |
 | is 'npw' in each processor.                                        |
 <<<<<<<<<<<<<<<<<<<<<<<<<<<<<<<<<<<<<<<<<<<<<<<<<<<<<<<<<<<<<<<<<<<<<<





 SETUP THE PLANE WAVE BASIS
 energy cutoff for charge/potential (unit:Ry) = 235.196
          [fft grid for charge/potential] = 27, 27, 144
                      [fft grid division] = 1, 1, 1
      [big fft grid for charge/potential] = 27, 27, 144
                                     nbxx = 104976
                                     nrxx = 104976

 SETUP PLANE WAVES FOR CHARGE/POTENTIAL
                    number of plane waves = 104976
                         number of sticks = 729

 PARALLEL PW FOR CHARGE/POTENTIAL
     PROC   COLUMNS(POT)             PW
        1            729         104976
 --------------- sum -------------------
        1            729         104976
                            number of |g| = 7227
                                  max |g| = 98.6404
                                  min |g| = 0

 SETUP THE ELECTRONS NUMBER
            electron number of element Mg = 2
      total electron number of element Mg = 6
            electron number of element Al = 3
      total electron number of element Al = 9
            AUTOSET number of electrons:  = 15
 DONE : SETUP UNITCELL Time : 1.03828 (SEC)





 >>>>>>>>>>>>>>>>>>>>>>>>>>>>>>>>>>>>>>>>>>>>>>>>>>>>>>>>>>>>>>>>>>>>>>
 |                                                                    |
 | Doing symmetry analysis:                                           |
 | We calculate the norm of 3 vectors and the angles between them,    |
 | the type of Bravais lattice is given. We can judge if the unticell |
 | is a primitive cell. Finally we give the point group operation for |
 | this unitcell. We we use the point group operations to do symmetry |
 | analysis on given k-point mesh and the charge density.             |
 |                                                                    |
 <<<<<<<<<<<<<<<<<<<<<<<<<<<<<<<<<<<<<<<<<<<<<<<<<<<<<<<<<<<<<<<<<<<<<<




 LATTICE VECTORS: (CARTESIAN COORDINATE: IN UNIT OF A0)
             +1.49471            -2.58891                  +0
             +1.49471            +2.58891                  +0
                   +0                  +0            +15.0141
                       right hand lattice = 1
                                   NORM_A = 2.98942
                                   NORM_B = 2.98942
                                   NORM_C = 15.0141
                           ALPHA (DEGREE) = 120
                           BETA  (DEGREE) = 90
                           GAMMA (DEGREE) = 90
                             BRAVAIS TYPE = 4
                     BRAVAIS LATTICE NAME = 04. Hexagonal cell
                                    IBRAV = 4
                                  BRAVAIS = HEXAGONAL CELL
                       LATTICE CONSTANT A = 2.98942
                                C/A RATIO = 5.02242
                                    ibrav = 4
                        ROTATION MATRICES = 24
              PURE POINT GROUP OPERATIONS = 24
                   SPACE GROUP OPERATIONS = 24
                                       C2 = 7
                                       C3 = 2
                                       C4 = 0
                                       C6 = 2
                                       S1 = 7
                                       S3 = 2
                                       S4 = 0
                                       S6 = 2
                              POINT GROUP = D_6h
Warning : If the optimal symmetric configuration is not the input configuration, 
you have to manually change configurations, ABACUS would only calculate the input structure.
 DONE : SYMMETRY Time : 1.10609 (SEC)





 >>>>>>>>>>>>>>>>>>>>>>>>>>>>>>>>>>>>>>>>>>>>>>>>>>>>>>>>>>>>>>>>>>>>>>
 |                                                                    |
 | Setup K-points                                                     |
 | We setup the k-points according to input parameters.               |
 | The reduced k-points are set according to symmetry operations.     |
 | We treat the spin as another set of k-points.                      |
 |                                                                    |
 <<<<<<<<<<<<<<<<<<<<<<<<<<<<<<<<<<<<<<<<<<<<<<<<<<<<<<<<<<<<<<<<<<<<<<





 SETUP K-POINTS
                                    nspin = 1
                   Input type of k points = Monkhorst-Pack(Gamma)
                                   nkstot = 1
                               nkstot_ibz = 1
      IBZ             DirectX             DirectY             DirectZ              Weight    ibz2bz
        1                   0                   0                   0                   1         0
                               nkstot now = 1

  KPOINTS            DIRECT_X            DIRECT_Y            DIRECT_Z              WEIGHT
        1                   0                   0                   0                   1

           k-point number in this process = 1
       minimum distributed K point number = 1

  KPOINTS         CARTESIAN_X         CARTESIAN_Y         CARTESIAN_Z              WEIGHT
        1                   0                   0                   0                   2

  KPOINTS            DIRECT_X            DIRECT_Y            DIRECT_Z              WEIGHT
        1                   0                   0                   0                   2
 DONE : INIT K-POINTS Time : 1.11097 (SEC)

 DONE : INIT BASIS Time : 1.23826 (SEC)

 DONE : INIT PHI Time : 1.24105 (SEC)


 SETUP NONLOCAL PSEUDOPOTENTIALS IN PLANE WAVE BASIS
 Mg non-local projectors:
 Al non-local projectors:
      TOTAL NUMBER OF NONLOCAL PROJECTORS = 0

 nhm = 0, not allocate some matrix. DONE : LOCAL POTENTIAL Time : 3.45959 (SEC)


 Init Non-Local PseudoPotential table : 
 Init Non-Local-Pseudopotential done.
 DONE : NON-LOCAL POTENTIAL Time : 3.46009 (SEC)

Successful completion of Potential's registration : local
Successful completion of Potential's registration : hartree
Successful completion of Potential's registration : xc
                                 init_chg = atomic
 DONE : INIT POTENTIAL Time : 7.05323 (SEC)

 DONE : INIT OPTIMIZATION Time : 7.05522 (SEC)

 DONE : INIT KEDF Time : 7.0814 (SEC)


 charge density convergence is achieved
 final etot is -244.043 eV



 ><><><><><><><><><><><><><><><><><><><><><><

    TOTAL-FORCE (eV/Angstrom)

 ><><><><><><><><><><><><><><><><><><><><><><

     atom              x              y              z
      Mg1              0              0              0
      Mg2              0              0              0
      Mg3              0              0              0
      Al1              0              0              0
      Al2              0              0              0
      Al3              0              0              0


 ><><><><><><><><><><><><><><><><><><><><><><

 TOTAL-STRESS (KBAR)

 ><><><><><><><><><><><><><><><><><><><><><><

      +20.885887      -0.000000      -0.000000
       -0.000000     +20.885887      -0.000000
       -0.000000      -0.000000      +6.026141
 TOTAL-PRESSURE: +15.932638 KBAR


 --------------------------------------------
 !FINAL_ETOT_IS -244.0429252626190078 eV
 --------------------------------------------






  |CLASS_NAME---------|NAME---------------|TIME(Sec)-----|CALLS----|AVG------|PER%-------
                                      total     +268.16431        21    +12.77   +100.00%
                 Driver         driver_line     +268.10119         1   +268.10    +99.98%
               PW_Basis      setuptransform       +0.87654         1     +0.88     +0.33%
               PW_Basis  setup_struc_factor       +0.12697         1     +0.13     +0.05%
              ppcell_vl           init_vloc       +2.21385         1     +2.21     +0.83%
                 Charge          atomic_rho       +2.76912         1     +2.77     +1.03%
               PW_Basis          recip2real      +52.13120      2249     +0.02    +19.44%
               PW_Basis    gathers_scatterp       +9.47278      2249     +0.00     +3.53%
              Potential            init_pot       +0.78643         1     +0.79     +0.29%
              Potential  update_from_charge     +174.05587       249     +0.70    +64.91%
              Potential           cal_v_eff     +174.00015       249     +0.70    +64.89%
           H_Hartree_pw           v_hartree      +16.96061       249     +0.07     +6.32%
               PW_Basis          real2recip      +72.44814      2744     +0.03    +27.02%
               PW_Basis    gatherp_scatters       +8.27700      2744     +0.00     +3.09%
                  PotXC           cal_v_eff     +155.89709       249     +0.63    +58.13%
          XC_Functional                v_xc     +128.85301       125     +1.03    +48.05%
          XC_Functional          v_xc_libxc     +153.98992       249     +0.62    +57.42%
             ESolver_OF                 Run     +256.44761         1   +256.45    +95.63%
                KEDF_TF        tf_potential       +9.36635       248     +0.04     +3.49%
                KEDF_WT        wt_potential      +50.40971       248     +0.20    +18.80%
                KEDF_vW        vw_potential      +15.07209       248     +0.06     +5.62%
                 Forces       cal_force_loc       +0.15555         1     +0.16     +0.06%
                 Forces        cal_force_ew       +0.14034         1     +0.14     +0.05%
           OF_Stress_PW          cal_stress       +3.99222         1     +3.99     +1.49%
            Stress_Func          stress_ewa       +0.12294         1     +0.12     +0.05%
            Stress_Func          stress_gga       +0.42145         1     +0.42     +0.16%
            Stress_Func          stress_loc       +3.41813         1     +3.42     +1.27%
 ----------------------------------------------------------------------------------------

 CLASS_NAME---------|NAME---------------|MEMORY(MB)--------
                                         +11.2491
             PW_Basis           struc_fac        +3.2036
 ----------------------------------------------------------

 Start  Time  : Mon May 15 11:33:45 2023
 Finish Time  : Mon May 15 11:38:14 2023
 Total  Time  : 0 h 4 mins 29 secs 
