 *********************************************************
 *                                                       *
 *                  WELCOME TO ABACUS v3.0               *
 *                                                       *
 *            'Atomic-orbital Based Ab-initio            *
 *                  Computation at UStc'                 *
 *                                                       *
 *          Website: http://abacus.ustc.edu.cn/          *
 *                                                       *
 *********************************************************
 Wed May  3 01:05:26 2023
 MAKE THE DIR         : OUT.oftest/
Notice: symbol 'mg_locpsp' is not an element symbol!!!! set the covalent radius to be 0.
 UNIFORM GRID DIM     : 36 * 36 * 60
 UNIFORM GRID DIM(BIG): 36 * 36 * 60
func,idXC_GGA_X_PBE 101
func,idXC_GGA_C_PBE 130
 DONE(0.319075   SEC) : SETUP UNITCELL
 DONE(0.373387   SEC) : SYMMETRY
 DONE(0.373597   SEC) : INIT K-POINTS
 ---------------------------------------------------------
 Self-consistent calculations for electrons
 ---------------------------------------------------------
 SPIN    KPOINTS         PROCESSORS  
 1       1               1           
 ---------------------------------------------------------
 Use plane wave basis
 ---------------------------------------------------------
 ELEMENT NATOM       XC          
 Mg      2           
 ---------------------------------------------------------
 Initial plane wave basis and FFT box
 ---------------------------------------------------------
 DONE(0.386247   SEC) : INIT BASIS
 DONE(0.386274   SEC) : INIT PHI
 DONE(0.879168   SEC) : LOCAL POTENTIAL
 DONE(0.879211   SEC) : NON-LOCAL POTENTIAL
 START CHARGE      : atomic
 DONE(1.48507    SEC) : INIT POTENTIAL
 DONE(1.48547    SEC) : INIT OPTIMIZATION
Default type: double
nnode = 10
nlayer = 3
feg_net_F = 0.540933
 DONE(1.55817    SEC) : INIT KEDF
======================== Running OFDFT ========================
Iter        Etot(Ha)          Theta      PotNorm     deltaE(Ha)
0     -1.687891441519e+00   2.000e-01   1.140e-01   -1.688e+00  
1     -1.776519335293e+00   9.866e-02   8.034e-02   -8.863e-02  
2     -1.780656696414e+00   2.395e-02   2.495e-02   -4.137e-03  
3     -1.780879482818e+00   3.573e-03   6.294e-03   -2.228e-04  
4     -1.780902622125e+00   1.296e-03   4.408e-03   -2.314e-05  
5     -1.780919082867e+00   1.764e-03   3.146e-03   -1.646e-05  
6     -1.780922050742e+00   5.193e-04   8.342e-04   -2.968e-06  
7     -1.780922316856e+00   1.591e-04   2.962e-04   -2.661e-07  
8     -1.780922350620e+00   4.830e-05   9.571e-05   -3.376e-08  

  |CLASS_NAME---------|NAME---------------|TIME(Sec)-----|CALLS----|AVG------|PER%-------
                       total               591.02         21        28        1e+02     %
   Driver              driver_line         591.01         1         5.9e+02   1e+02     %
   PW_Basis            setuptransform      0.27881        1         0.28      0.047     %
   ppcell_vl           init_vloc           0.49272        1         0.49      0.083     %
   Charge              atomic_rho          0.47355        1         0.47      0.08      %
   PW_Basis            recip2real          13.009         4328      0.003     2.2       %
   PW_Basis            gathers_scatterp    1.145          4328      0.00026   0.19      %
   Potential           init_pot            0.12638        1         0.13      0.021     %
   Potential           update_from_charge  19.988         217       0.092     3.4       %
   Potential           cal_v_eff           19.982         217       0.092     3.4       %
   H_Hartree_pw        v_hartree           1.5408         217       0.0071    0.26      %
   PW_Basis            real2recip          13.204         4328      0.0031    2.2       %
   PW_Basis            gatherp_scatters    0.74719        4328      0.00017   0.13      %
   PotXC               cal_v_eff           18.385         217       0.085     3.1       %
   XC_Functional       v_xc                293.27         109       2.7       50        %
   XC_Functional       v_xc_libxc          18.358         217       0.085     3.1       %
   ESolver_OF          Run                 589.46         1         5.9e+02   1e+02     %
   KEDF_vW             vw_potential        1.4878         216       0.0069    0.25      %
 ----------------------------------------------------------------------------------------

 START  Time  : Wed May  3 01:05:26 2023
 FINISH Time  : Wed May  3 01:15:17 2023
 TOTAL  Time  : 5.9e+02
 SEE INFORMATION IN : OUT.oftest/
