                                                                                     
                             WELCOME TO ABACUS                                       
                                                                                     
               'Atomic-orbital Based Ab-initio Computation at UStc'                  
                                                                                     
                     Website: http://abacus.ustc.edu.cn/                             
                                                                                     
    Version: Parallel, in development
    Processor Number is 16
    Start Time is Fri Sep 24 12:20:26 2021
                                                                                     
 ------------------------------------------------------------------------------------

 READING GENERAL INFORMATION
                           global_out_dir = OUT.stack/
                           global_in_card = INPUT
                               pseudo_dir = ./
                              orbital_dir = ./
                              pseudo_type = blps
                                    DRANK = 1
                                    DSIZE = 16
                                   DCOLOR = 1
                                    GRANK = 1
                                    GSIZE = 1




 >>>>>>>>>>>>>>>>>>>>>>>>>>>>>>>>>>>>>>>>>>>>>>>>>>>>>>>>>>>>>>>>>>>>>>
 |                                                                    |
 | Reading atom information in unitcell:                              |
 | From the input file and the structure file we know the number of   |
 | different elments in this unitcell, then we list the detail        |
 | information for each element, especially the zeta and polar atomic |
 | orbital number for each element. The total atom number is counted. |
 | We calculate the nearest atom distance for each atom and show the  |
 | Cartesian and Direct coordinates for each atom. We list the file   |
 | address for atomic orbitals. The volume and the lattice vectors    |
 | in real and reciprocal space is also shown.                        |
 |                                                                    |
 <<<<<<<<<<<<<<<<<<<<<<<<<<<<<<<<<<<<<<<<<<<<<<<<<<<<<<<<<<<<<<<<<<<<<<




 READING UNITCELL INFORMATION
                                    ntype = 1
                 atom label for species 1 = Al
                  lattice constant (Bohr) = 7.50241
              lattice constant (Angstrom) = 3.9701

 READING ATOM TYPE 1
                               atom label = Al
                      L=0, number of zeta = 1
                      L=1, number of zeta = 1
                      L=2, number of zeta = 1
             number of atom for this type = 21
                      start magnetization = FALSE
                      start magnetization = FALSE
                      start magnetization = FALSE
                      start magnetization = FALSE
                      start magnetization = FALSE
                      start magnetization = FALSE
                      start magnetization = FALSE
                      start magnetization = FALSE
                      start magnetization = FALSE
                      start magnetization = FALSE
                      start magnetization = FALSE
                      start magnetization = FALSE
                      start magnetization = FALSE
                      start magnetization = FALSE
                      start magnetization = FALSE
                      start magnetization = FALSE
                      start magnetization = FALSE
                      start magnetization = FALSE
                      start magnetization = FALSE
                      start magnetization = FALSE
                      start magnetization = FALSE

                        TOTAL ATOM NUMBER = 21

 DIRECT COORDINATES
         atom                   x                   y                   z                 mag                  vx                  vy                  vz
     taud_Al1                   0                   0                   0                   0                   0                   0                   0
     taud_Al2            0.333333            0.333333            0.047619                   0                   0                   0                   0
     taud_Al3            0.666667            0.666667           0.0952381                   0                   0                   0                   0
     taud_Al4                   0                   0            0.142857                   0                   0                   0                   0
     taud_Al5            0.333333            0.333333            0.190476                   0                   0                   0                   0
     taud_Al6            0.666667            0.666667            0.238095                   0                   0                   0                   0
     taud_Al7                   0                   0            0.285714                   0                   0                   0                   0
     taud_Al8            0.333333            0.333333            0.333333                   0                   0                   0                   0
     taud_Al9            0.666667            0.666667            0.380952                   0                   0                   0                   0
    taud_Al10                   0                   0            0.428571                   0                   0                   0                   0
    taud_Al11            0.333333            0.333333             0.47619                   0                   0                   0                   0
    taud_Al12            0.666667            0.666667             0.52381                   0                   0                   0                   0
    taud_Al13                   0                   0            0.571429                   0                   0                   0                   0
    taud_Al14            0.333333            0.333333            0.619048                   0                   0                   0                   0
    taud_Al15            0.666667            0.666667            0.666667                   0                   0                   0                   0
    taud_Al16                   0                   0            0.714286                   0                   0                   0                   0
    taud_Al17            0.333333            0.333333            0.761905                   0                   0                   0                   0
    taud_Al18            0.666667            0.666667            0.809524                   0                   0                   0                   0
    taud_Al19                   0                   0            0.857143                   0                   0                   0                   0
    taud_Al20            0.333333            0.333333            0.904762                   0                   0                   0                   0
    taud_Al21            0.666667            0.666667            0.952381                   0                   0                   0                   0


                          Volume (Bohr^3) = 2216.98
                             Volume (A^3) = 328.522

 Lattice vectors: (Cartesian coordinate: in unit of a_0)
            +0.707107                  +0                  +0
            +0.353553           +0.612372                  +0
                   +0                  +0            +12.1244
 Reciprocal vectors: (Cartesian coordinate: in unit of 2 pi/a_0)
             +1.41421           -0.816497                  +0
                   -0            +1.63299                  -0
                   +0                  -0          +0.0824786




 >>>>>>>>>>>>>>>>>>>>>>>>>>>>>>>>>>>>>>>>>>>>>>>>>>>>>>>>>>>>>>>>>>>>>>
 |                                                                    |
 | Reading pseudopotentials files:                                    |
 | The pseudopotential file is in UPF format. The 'NC' indicates that |
 | the type of pseudopotential is 'norm conserving'. Functional of    |
 | exchange and correlation is decided by 4 given parameters in UPF   |
 | file.  We also read in the 'core correction' if there exists.      |
 | Also we can read the valence electrons number and the maximal      |
 | angular momentum used in this pseudopotential. We also read in the |
 | trail wave function, trail atomic density and local-pseudopotential|
 | on logrithmic grid. The non-local pseudopotential projector is also|
 | read in if there is any.                                           |
 |                                                                    |
 <<<<<<<<<<<<<<<<<<<<<<<<<<<<<<<<<<<<<<<<<<<<<<<<<<<<<<<<<<<<<<<<<<<<<<




                PAO radial cut off (Bohr) = 16

 Read in pseudopotential file is al.lda.lps
                     pseudopotential type = 
                            functional Ex = LDA
                            functional Ec = LDA
                          functional GCEx = NOGX
                          functional GCEc = NOGC
                 nonlocal core correction = 0
                        valence electrons = 3
                                     lmax = 0
                           number of zeta = 0
                     number of projectors = 0
     initial pseudo atomic orbital number = 0
                                   NLOCAL = 189

 SETUP THE ELECTRONS NUMBER
            electron number of element Al = 3
      total electron number of element Al = 63
                           occupied bands = 32
                                   NBANDS = 60
 DONE : SETUP UNITCELL Time : 0.00883603 (SEC)





 >>>>>>>>>>>>>>>>>>>>>>>>>>>>>>>>>>>>>>>>>>>>>>>>>>>>>>>>>>>>>>>>>>>>>>
 |                                                                    |
 | Doing symmetry analysis:                                           |
 | We calculate the norm of 3 vectors and the angles between them,    |
 | the type of Bravais lattice is given. We can judge if the unticell |
 | is a primitive cell. Finally we give the point group operation for |
 | this unitcell. We we use the point group operations to do symmetry |
 | analysis on given k-point mesh and the charge density.             |
 |                                                                    |
 <<<<<<<<<<<<<<<<<<<<<<<<<<<<<<<<<<<<<<<<<<<<<<<<<<<<<<<<<<<<<<<<<<<<<<




 LATTICE VECTORS: (CARTESIAN COORDINATE: IN UNIT OF A0)
            +0.707107                  +0                  +0
            +0.353553           +0.612372                  +0
                   +0                  +0            +12.1244
                       right hand lattice = 1
                                   NORM_A = 0.707107
                                   NORM_B = 0.707107
                                   NORM_C = 12.1244
                           ALPHA (DEGREE) = 60
                           BETA  (DEGREE) = 90
                           GAMMA (DEGREE) = 90
                             BRAVAIS TYPE = 4
                     BRAVAIS LATTICE NAME = 04. Hexagonal cell
 STANDARD LATTICE VECTORS: (CARTESIAN COORDINATE: IN UNIT OF A0)
            +0.707107                  +0                  +0
            +0.353553           +0.612372                  +0
                   +0                  +0            +12.1244
                                    IBRAV = 4
                                  BRAVAIS = HEXAGONAL CELL
                       LATTICE CONSTANT A = 36.4623
                                C/A RATIO = 0.667011
                                    ibrav = 4
                        ROTATION MATRICES = 24
              PURE POINT GROUP OPERATIONS = 4
                   SPACE GROUP OPERATIONS = 4
                                       C2 = 1
                                       C3 = 0
                                       C4 = 0
                                       C6 = 0
                                       S1 = 1
                                       S3 = 0
                                       S4 = 0
                                       S6 = 0
                              POINT GROUP = C_2h
 DONE : SYMMETRY Time : 0.045023 (SEC)





 >>>>>>>>>>>>>>>>>>>>>>>>>>>>>>>>>>>>>>>>>>>>>>>>>>>>>>>>>>>>>>>>>>>>>>
 |                                                                    |
 | Setup K-points                                                     |
 | We setup the k-points according to input parameters.               |
 | The reduced k-points are set according to symmetry operations.     |
 | We treat the spin as another set of k-points.                      |
 |                                                                    |
 <<<<<<<<<<<<<<<<<<<<<<<<<<<<<<<<<<<<<<<<<<<<<<<<<<<<<<<<<<<<<<<<<<<<<<





 SETUP K-POINTS
                                    nspin = 1
                   Input type of k points = Monkhorst-Pack(Gamma)
                                   nkstot = 100
                               nkstot_ibz = 31
      IBZ             DirectX             DirectY             DirectZ              Weight    ibz2bz
        1                   0                   0                   0                0.01         0
        2                 0.9                   0                   0                0.04         1
        3                 0.8                   0                   0                0.04         2
        4                 0.7                   0                   0                0.04         3
        5                 0.6                   0                   0                0.04         4
        6                   0                 0.5                   0                0.02         5
        7                 0.9                 0.9                   0                0.02        11
        8                 0.9                 0.8                   0                0.04        12
        9                 0.9                 0.7                   0                0.04        13
       10                 0.9                 0.6                   0                0.04        14
       11                 0.9                 0.5                   0                0.04        15
       12                 0.9                 0.4                   0                0.04        16
       13                 0.9                 0.3                   0                0.04        17
       14                 0.9                 0.2                   0                0.04        18
       15                 0.1                 0.9                   0                0.02        19
       16                 0.8                 0.8                   0                0.02        22
       17                 0.8                 0.7                   0                0.04        23
       18                 0.8                 0.6                   0                0.04        24
       19                 0.8                 0.5                   0                0.04        25
       20                 0.8                 0.4                   0                0.04        26
       21                 0.8                 0.3                   0                0.04        27
       22                 0.2                 0.8                   0                0.02        28
       23                 0.7                 0.7                   0                0.02        33
       24                 0.7                 0.6                   0                0.04        34
       25                 0.7                 0.5                   0                0.04        35
       26                 0.7                 0.4                   0                0.04        36
       27                 0.3                 0.7                   0                0.02        37
       28                 0.6                 0.6                   0                0.02        44
       29                 0.6                 0.5                   0                0.04        45
       30                 0.4                 0.6                   0                0.02        46
       31                 0.5                 0.5                   0                0.01        55
                               nkstot now = 31

  KPOINTS            DIRECT_X            DIRECT_Y            DIRECT_Z              WEIGHT
        1                   0                   0                   0                0.01
        2                 0.9                   0                   0                0.04
        3                 0.8                   0                   0                0.04
        4                 0.7                   0                   0                0.04
        5                 0.6                   0                   0                0.04
        6                   0                 0.5                   0                0.02
        7                 0.9                 0.9                   0                0.02
        8                 0.9                 0.8                   0                0.04
        9                 0.9                 0.7                   0                0.04
       10                 0.9                 0.6                   0                0.04
       11                 0.9                 0.5                   0                0.04
       12                 0.9                 0.4                   0                0.04
       13                 0.9                 0.3                   0                0.04
       14                 0.9                 0.2                   0                0.04
       15                 0.1                 0.9                   0                0.02
       16                 0.8                 0.8                   0                0.02
       17                 0.8                 0.7                   0                0.04
       18                 0.8                 0.6                   0                0.04
       19                 0.8                 0.5                   0                0.04
       20                 0.8                 0.4                   0                0.04
       21                 0.8                 0.3                   0                0.04
       22                 0.2                 0.8                   0                0.02
       23                 0.7                 0.7                   0                0.02
       24                 0.7                 0.6                   0                0.04
       25                 0.7                 0.5                   0                0.04
       26                 0.7                 0.4                   0                0.04
       27                 0.3                 0.7                   0                0.02
       28                 0.6                 0.6                   0                0.02
       29                 0.6                 0.5                   0                0.04
       30                 0.4                 0.6                   0                0.02
       31                 0.5                 0.5                   0                0.01

           k-point number in this process = 31
       minimum distributed K point number = 31

  KPOINTS         CARTESIAN_X         CARTESIAN_Y         CARTESIAN_Z              WEIGHT
        1                   0                   0                   0                0.02
        2             1.27279           -0.734847                   0                0.08
        3             1.13137           -0.653197                   0                0.08
        4            0.989949           -0.571548                   0                0.08
        5            0.848528           -0.489898                   0                0.08
        6                   0            0.816497                   0                0.04
        7             1.27279            0.734847                   0                0.04
        8             1.27279            0.571548                   0                0.08
        9             1.27279            0.408248                   0                0.08
       10             1.27279            0.244949                   0                0.08
       11             1.27279           0.0816497                   0                0.08
       12             1.27279          -0.0816497                   0                0.08
       13             1.27279           -0.244949                   0                0.08
       14             1.27279           -0.408248                   0                0.08
       15            0.141421             1.38804                   0                0.04
       16             1.13137            0.653197                   0                0.04
       17             1.13137            0.489898                   0                0.08
       18             1.13137            0.326599                   0                0.08
       19             1.13137            0.163299                   0                0.08
       20             1.13137                   0                   0                0.08
       21             1.13137           -0.163299                   0                0.08
       22            0.282843              1.1431                   0                0.04
       23            0.989949            0.571548                   0                0.04
       24            0.989949            0.408248                   0                0.08
       25            0.989949            0.244949                   0                0.08
       26            0.989949           0.0816497                   0                0.08
       27            0.424264            0.898146                   0                0.04
       28            0.848528            0.489898                   0                0.04
       29            0.848528            0.326599                   0                0.08
       30            0.565685            0.653197                   0                0.04
       31            0.707107            0.408248                   0                0.02

  KPOINTS            DIRECT_X            DIRECT_Y            DIRECT_Z              WEIGHT
        1                   0                   0                   0                0.02
        2                 0.9                   0                   0                0.08
        3                 0.8                   0                   0                0.08
        4                 0.7                   0                   0                0.08
        5                 0.6                   0                   0                0.08
        6                   0                 0.5                   0                0.04
        7                 0.9                 0.9                   0                0.04
        8                 0.9                 0.8                   0                0.08
        9                 0.9                 0.7                   0                0.08
       10                 0.9                 0.6                   0                0.08
       11                 0.9                 0.5                   0                0.08
       12                 0.9                 0.4                   0                0.08
       13                 0.9                 0.3                   0                0.08
       14                 0.9                 0.2                   0                0.08
       15                 0.1                 0.9                   0                0.04
       16                 0.8                 0.8                   0                0.04
       17                 0.8                 0.7                   0                0.08
       18                 0.8                 0.6                   0                0.08
       19                 0.8                 0.5                   0                0.08
       20                 0.8                 0.4                   0                0.08
       21                 0.8                 0.3                   0                0.08
       22                 0.2                 0.8                   0                0.04
       23                 0.7                 0.7                   0                0.04
       24                 0.7                 0.6                   0                0.08
       25                 0.7                 0.5                   0                0.08
       26                 0.7                 0.4                   0                0.08
       27                 0.3                 0.7                   0                0.04
       28                 0.6                 0.6                   0                0.04
       29                 0.6                 0.5                   0                0.08
       30                 0.4                 0.6                   0                0.04
       31                 0.5                 0.5                   0                0.02
 DONE : INIT K-POINTS Time : 0.052532 (SEC)





 >>>>>>>>>>>>>>>>>>>>>>>>>>>>>>>>>>>>>>>>>>>>>>>>>>>>>>>>>>>>>>>>>>>>>>
 |                                                                    |
 | Setup plane waves:                                                 |
 | Use the energy cutoff and the lattice vectors to generate the      |
 | dimensions of FFT grid. The number of FFT grid on each processor   |
 | is 'nrxx'. The number of plane wave basis in reciprocal space is   |
 | different for charege/potential and wave functions. We also set    |
 | the 'sticks' for the parallel of FFT.                              |
 |                                                                    |
 <<<<<<<<<<<<<<<<<<<<<<<<<<<<<<<<<<<<<<<<<<<<<<<<<<<<<<<<<<<<<<<<<<<<<<





 SETUP THE PLANE WAVE BASIS
     energy cutoff for wavefunc (unit:Ry) = 40
            [fft grid for wave functions] = 24, 24, 375
          [fft grid for charge/potential] = 24, 24, 375
                      [fft grid division] = 1, 1, 1
      [big fft grid for charge/potential] = 24, 24, 375
                                     nbxx = 13824
                                     nrxx = 13824

 SETUP PLANE WAVES FOR CHARGE/POTENTIAL
                    number of plane waves = 76123
                         number of sticks = 313

 SETUP PLANE WAVES FOR WAVE FUNCTIONS
                    number of plane waves = 16155
                         number of sticks = 109

 PARALLEL PW FOR CHARGE/POTENTIAL
     PROC   COLUMNS(POT)             PW
        1             20           4754
        2             19           4739
        3             20           4784
        4             19           4739
        5             20           4752
        6             20           4752
        7             20           4786
        8             20           4786
        9             20           4786
       10             19           4737
       11             19           4739
       12             19           4737
       13             19           4739
       14             20           4774
       15             20           4782
       16             19           4737
 --------------- sum -------------------
       16            313          76123

 PARALLEL PW FOR WAVE FUNCTIONS
     PROC     COLUMNS(W)             PW
        1              6            984
        2              7           1003
        3              7           1017
        4              7           1017
        5              7           1017
        6              7           1017
        7              7           1017
        8              7           1007
        9              7           1007
       10              7           1039
       11              7           1039
       12              6            976
       13              6            982
       14              7           1019
       15              7           1013
       16              7           1001
 --------------- sum -------------------
       16            109          16155

 SETUP COORDINATES OF PLANE WAVES
              number of total plane waves = 76123

 SETUP COORDINATES OF PLANE WAVES
                            number of |g| = 1747
                                  max |g| = 228.109
                                  min |g| = 0
 DONE : INIT PLANEWAVE Time : 0.201594 (SEC)

                                     npwx = 764

 SETUP NONLOCAL PSEUDOPOTENTIALS IN PLANE WAVE BASIS
 Al non-local projectors:
      TOTAL NUMBER OF NONLOCAL PROJECTORS = 0

 nhm = 0, not allocate some matrix. DONE : LOCAL POTENTIAL Time : 0.346528 (SEC)


 Init Non-Local PseudoPotential table : 
 Init Non-Local-Pseudopotential done.
 DONE : NON-LOCAL POTENTIAL Time : 0.346558 (SEC)

                                start_pot = atomic
 DONE : INIT POTENTIAL Time : 0.490743 (SEC)


 Make real space PAO into reciprocal space.
       max mesh points in Pseudopotential = 1601
     dq(describe PAO in reciprocal space) = 0.01
                                    max q = 764

 number of pseudo atomic orbitals for Al is 0
 DONE : INIT BASIS Time : 2.92028 (SEC)


 -------------------------------------------
 RELAX CELL : 1
 RELAX IONS : 1 (in total: 1)
 -------------------------------------------

 PW ALGORITHM --------------- ION=   1  ELEC=   1--------------------------------
  K-point    CG iter num      Time(Sec)
        1       8.116667       0.255723
        2       8.583333       0.267089
        3       8.516667       0.267850
        4       8.466667       0.260462
        5       8.566667       0.264504
        6       8.433333       0.263527
        7       8.616667       0.274040
        8       7.966667       0.251766
        9       8.533333       0.265085
       10       8.750000       0.271550
       11       8.416667       0.262285
       12       8.383333       0.260197
       13       8.466667       0.261968
       14       8.466667       0.265506
       15       8.200000       0.259039
       16       8.816667       0.274615
       17       8.433333       0.260779
       18       8.216667       0.256306
       19       8.600000       0.267664
       20       8.133333       0.252640
       21       8.333333       0.258185
       22       8.316667       0.262541
       23       8.700000       0.270037
       24       8.783333       0.269272
       25       8.316667       0.256225
       26       8.050000       0.251762
       27       8.100000       0.253245
       28       8.483333       0.263512
       29       8.650000       0.265570
       30       8.566667       0.269726
       31       8.450000       0.261807

 Density error is 1.793090608793
                          Error Threshold = 0.010000000000

       Energy                       Rydberg                            eV
   E_KohnSham              -89.066318273290            -1211.809428398261
     E_Harris              -89.444203095086            -1216.950815162401
      E_Fermi               +0.623555846500               +8.483912533614

 PW ALGORITHM --------------- ION=   1  ELEC=   2--------------------------------
  K-point    CG iter num      Time(Sec)
        1       5.233333       0.181674
        2       4.283333       0.149973
        3       3.800000       0.135302
        4       3.383333       0.133872
        5       3.250000       0.122545
        6       3.283333       0.122042
        7       4.500000       0.157375
        8       3.716667       0.132532
        9       3.433333       0.125177
       10       3.600000       0.128682
       11       3.233333       0.116889
       12       3.416667       0.122614
       13       3.433333       0.125019
       14       3.433333       0.125388
       15       3.883333       0.138004
       16       3.950000       0.139886
       17       3.383333       0.121692
       18       3.366667       0.120506
       19       3.233333       0.118258
       20       3.133333       0.113557
       21       3.316667       0.120826
       22       3.350000       0.121722
       23       3.450000       0.123668
       24       3.466667       0.125789
       25       3.116667       0.112748
       26       2.916667       0.107003
       27       2.883333       0.106813
       28       3.366667       0.121717
       29       3.500000       0.126033
       30       3.100000       0.115032
       31       3.083333       0.112902

 Density error is 129.302464702708
                          Error Threshold = 0.002846175570

       Energy                       Rydberg                            eV
   E_KohnSham              +38.139227788716             +518.910815246478
     E_Harris              -89.862417717102            -1222.640917008739
      E_Fermi               +0.603321258233               +8.208606836494

 PW ALGORITHM --------------- ION=   1  ELEC=   3--------------------------------
  K-point    CG iter num      Time(Sec)
        1      49.016667       1.397666
        2      51.600000       1.487009
        3      51.150000       1.472740
        4      52.150000       1.489929
        5      52.816667       1.507515
        6      51.416667       1.481199
        7      51.250000       1.481028
        8      50.533333       1.463417
        9      51.250000       1.484141
       10      52.066667       1.493102
       11      51.783333       1.483099
       12      52.533333       1.503885
       13      52.916667       1.515080
       14      52.866667       1.518125
       15      50.966667       1.485622
       16      50.716667       1.467691
       17      51.050000       1.467808
       18      51.450000       1.476302
       19      52.816667       1.510452
       20      51.683333       1.480368
       21      53.216667       1.516950
       22      52.350000       1.524248
       23      52.550000       1.506920
       24      51.266667       1.470441
       25      53.866667       1.539752
       26      51.566667       1.501897
       27      50.633333       1.466447
       28      53.183333       1.526927
       29      52.516667       1.498295
       30      51.800000       1.489742
       31      51.900000       1.484782

 Density error is 14263.024655750723
                          Error Threshold = 0.002846175570

       Energy                       Rydberg                            eV
   E_KohnSham            -1152.553067138740           -15681.288960463426
     E_Harris            -2067.672824504428           -28132.132013014245
      E_Fermi              -27.994274546497             -380.881645208727

 PW ALGORITHM --------------- ION=   1  ELEC=   4--------------------------------
  K-point    CG iter num      Time(Sec)
        1      25.583333       0.743715
        2      29.616667       0.873182
        3      34.350000       1.027950
        4      37.583333       1.107080
        5      35.466667       1.035989
        6      35.966667       1.068678
        7      31.583333       0.954096
        8      34.000000       1.025125
        9      37.066667       1.097833
       10      32.883333       0.958590
       11      34.433333       1.003877
       12      37.583333       1.106254
       13      35.083333       1.043408
       14      37.100000       1.101497
       15      35.183333       1.056575
       16      33.566667       1.005169
       17      36.266667       1.075220
       18      35.700000       1.053697
       19      36.616667       1.080552
       20      36.133333       1.060890
       21      35.700000       1.051453
       22      35.366667       1.057636
       23      36.166667       1.069625
       24      35.450000       1.045853
       25      33.433333       0.963039
       26      33.683333       0.992643
       27      33.300000       0.998394
       28      36.133333       1.060502
       29      36.616667       1.070552
       30      35.633333       1.057952
       31      35.916667       1.056507

 Density error is 10300.565525065376
                          Error Threshold = 0.002846175570

       Energy                       Rydberg                            eV
   E_KohnSham             -670.183160733678            -9118.309689627878
     E_Harris            -1201.421593606617           -16346.179373290357
      E_Fermi              -15.634182697759             -212.713968262537

 PW ALGORITHM --------------- ION=   1  ELEC=   5--------------------------------
  K-point    CG iter num      Time(Sec)
        1      29.716667       0.853357
        2      30.800000       0.896904
        3      29.350000       0.856326
        4      29.750000       0.860475
        5      28.466667       0.826298
        6      27.983333       0.823023
        7      30.533333       0.893719
        8      30.283333       0.890810
        9      28.883333       0.843552
       10      30.516667       0.886579
       11      28.850000       0.842318
       12      28.316667       0.826563
       13      28.633333       0.840136
       14      29.416667       0.853856
       15      29.916667       0.881558
       16      29.833333       0.871585
       17      29.950000       0.872269
       18      28.716667       0.835205
       19      28.933333       0.843378
       20      27.316667       0.795197
       21      28.583333       0.830567
       22      28.733333       0.843745
       23      29.316667       0.850901
       24      28.933333       0.839083
       25      29.700000       0.861416
       26      27.783333       0.806598
       27      26.933333       0.794397
       28      28.083333       0.826888
       29      26.833333       0.778007
       30      28.333333       0.829267
       31      27.516667       0.802267

 Density error is 6697.129933672483
                          Error Threshold = 0.002846175570

       Energy                       Rydberg                            eV
   E_KohnSham             -401.038821983715            -5456.413098186187
     E_Harris             -699.798228876868            -9521.243363033545
      E_Fermi               -8.306970676986             -113.022134325927

 PW ALGORITHM --------------- ION=   1  ELEC=   6--------------------------------
  K-point    CG iter num      Time(Sec)
        1      21.300000       0.622893
        2      24.500000       0.728542
        3      23.800000       0.706238
        4      21.383333       0.631279
        5      21.450000       0.633694
        6      18.966667       0.569663
        7      24.200000       0.720355
        8      23.433333       0.694771
        9      23.600000       0.699278
       10      21.416667       0.635622
       11      20.766667       0.617196
       12      20.766667       0.618044
       13      21.666667       0.644769
       14      23.316667       0.691894
       15      23.200000       0.693092
       16      23.666667       0.699527
       17      23.700000       0.700665
       18      21.933333       0.645673
       19      21.533333       0.640272
       20      20.116667       0.595815
       21      21.183333       0.623360
       22      21.966667       0.654845
       23      22.150000       0.653478
       24      21.333333       0.626822
       25      20.666667       0.609733
       26      19.966667       0.591396
       27      20.316667       0.609038
       28      22.250000       0.656671
       29      20.700000       0.609687
       30      20.866667       0.621731
       31      19.150000       0.567802

 Density error is 4456.124622539153
                          Error Threshold = 0.002846175570

       Energy                       Rydberg                            eV
   E_KohnSham             -260.238750558502            -3540.729847996316
     E_Harris             -414.919825118909            -5645.273834780695
      E_Fermi               -4.113498811224              -55.967022548873

 PW ALGORITHM --------------- ION=   1  ELEC=   7--------------------------------
  K-point    CG iter num      Time(Sec)
        1       8.866667       0.281016
        2      10.983333       0.341178
        3      11.516667       0.361445
        4      10.566667       0.327921
        5      10.150000       0.315309
        6       9.233333       0.294491
        7      10.566667       0.331886
        8      11.416667       0.356316
        9      11.866667       0.365767
       10      11.200000       0.352002
       11      10.516667       0.328854
       12      11.183333       0.346937
       13      11.083333       0.346627
       14      12.133333       0.374319
       15      11.133333       0.350738
       16      11.300000       0.354573
       17      12.233333       0.377697
       18      10.450000       0.327696
       19      10.083333       0.318237
       20       9.583333       0.302322
       21      10.183333       0.318496
       22      11.083333       0.354073
       23      10.783333       0.334007
       24      11.300000       0.353034
       25      10.966667       0.343582
       26       9.333333       0.294679
       27       8.950000       0.288915
       28      10.750000       0.336265
       29      10.333333       0.326134
       30       9.800000       0.309893
       31       9.566667       0.302416

 Density error is 3678.095525636119
                          Error Threshold = 0.002846175570

       Energy                       Rydberg                            eV
   E_KohnSham             -180.580187507837            -2456.919496014998
     E_Harris             -264.847155890841            -3603.430419209701
      E_Fermi               -1.908606529351              -25.967924039179

 PW ALGORITHM --------------- ION=   1  ELEC=   8--------------------------------
  K-point    CG iter num      Time(Sec)
        1       5.883333       0.197901
        2       5.550000       0.184515
        3       6.466667       0.212192
        4       6.433333       0.210812
        5       6.233333       0.201248
        6       5.400000       0.181518
        7       6.350000       0.208609
        8       7.033333       0.229478
        9       6.833333       0.223397
       10       7.033333       0.229664
       11       6.466667       0.211937
       12       6.883333       0.226554
       13       6.950000       0.226188
       14       6.916667       0.224205
       15       6.700000       0.223559
       16       6.183333       0.203777
       17       6.600000       0.215309
       18       6.566667       0.215900
       19       6.183333       0.203825
       20       5.950000       0.199497
       21       6.350000       0.208400
       22       6.500000       0.216131
       23       6.816667       0.221849
       24       7.966667       0.255567
       25       6.033333       0.198609
       26       4.916667       0.166930
       27       5.333333       0.181174
       28       6.300000       0.206049
       29       6.166667       0.203866
       30       6.233333       0.206984
       31       5.283333       0.174889

 Density error is 3247.863803176091
                          Error Threshold = 0.002846175570

       Energy                       Rydberg                            eV
   E_KohnSham             -131.644914656512            -1791.120952052272
     E_Harris             -181.998104688815            -2476.211248968398
      E_Fermi               -0.682135287098               -9.280926711394

 PW ALGORITHM --------------- ION=   1  ELEC=   9--------------------------------
  K-point    CG iter num      Time(Sec)
        1       4.233333       0.148864
        2       4.133333       0.141712
        3       4.600000       0.156790
        4       4.950000       0.166667
        5       4.550000       0.153775
        6       4.700000       0.161894
        7       4.200000       0.144813
        8       5.150000       0.174431
        9       5.366667       0.179244
       10       4.966667       0.166810
       11       5.983333       0.199103
       12       5.566667       0.186160
       13       5.550000       0.184892
       14       5.733333       0.189605
       15       4.450000       0.153262
       16       4.616667       0.157698
       17       6.400000       0.211330
       18       4.750000       0.162507
       19       4.400000       0.150782
       20       3.883333       0.136153
       21       4.266667       0.146525
       22       4.516667       0.158158
       23       4.633333       0.156374
       24       5.433333       0.182426
       25       4.583333       0.156653
       26       3.683333       0.129589
       27       3.816667       0.134960
       28       5.066667       0.170212
       29       5.716667       0.189005
       30       3.950000       0.139430
       31       4.350000       0.148684

 Density error is 2703.960278645943
                          Error Threshold = 0.002846175570

       Energy                       Rydberg                            eV
   E_KohnSham             +131.538156041428            +1789.668426576543
     E_Harris             -132.592588462972            -1804.014715665477
      E_Fermi               +0.048653627181               +0.661966558035

 PW ALGORITHM --------------- ION=   1  ELEC=  10--------------------------------
  K-point    CG iter num      Time(Sec)
        1      31.050000       0.883789
        2      31.183333       0.901106
        3      30.983333       0.894805
        4      30.183333       0.865182
        5      31.283333       0.893657
        6      28.783333       0.835756
        7      32.066667       0.929217
        8      30.133333       0.868228
        9      30.883333       0.889486
       10      29.216667       0.837562
       11      29.183333       0.838863
       12      28.716667       0.826166
       13      29.683333       0.853830
       14      30.116667       0.873013
       15      30.466667       0.883378
       16      30.083333       0.865443
       17      30.833333       0.885019
       18      29.000000       0.831024
       19      29.100000       0.832461
       20      27.300000       0.782269
       21      28.350000       0.808352
       22      28.533333       0.834595
       23      31.133333       0.894167
       24      29.183333       0.836178
       25      30.150000       0.858771
       26      27.133333       0.774140
       27      26.866667       0.779353
       28      31.566667       0.905261
       29      29.033333       0.837643
       30      27.550000       0.796097
       31      28.466667       0.819044

 Density error is 10260.669707951341
                          Error Threshold = 0.002846175570

       Energy                       Rydberg                            eV
   E_KohnSham             -984.069923800261           -13388.958194109366
     E_Harris             -444.036902393407            -6041.431994820169
      E_Fermi               -4.341029328025              -59.062734046254

 PW ALGORITHM --------------- ION=   1  ELEC=  11--------------------------------
  K-point    CG iter num      Time(Sec)
        1      26.250000       0.761750
        2      29.800000       0.868856
        3      31.466667       0.946137
        4      32.400000       0.961803
        5      27.200000       0.797037
        6      28.066667       0.855464
        7      29.900000       0.883004
        8      28.783333       0.848048
        9      28.516667       0.837632
       10      27.950000       0.824100
       11      31.316667       0.937857
       12      30.166667       0.882985
       13      28.783333       0.845673
       14      28.833333       0.841012
       15      27.733333       0.820648
       16      32.016667       0.960589
       17      29.483333       0.863235
       18      27.516667       0.808342
       19      30.933333       0.926492
       20      26.983333       0.791263
       21      31.383333       0.934737
       22      27.983333       0.842731
       23      32.333333       0.965973
       24      28.633333       0.838566
       25      29.416667       0.860878
       26      28.800000       0.862185
       27      29.166667       0.887143
       28      27.533333       0.809667
       29      29.516667       0.860479
       30      26.616667       0.788740
       31      29.866667       0.902658

 Density error is 7735.234151175038
                          Error Threshold = 0.002846175570

       Energy                       Rydberg                            eV
   E_KohnSham             -548.647576136077            -7464.733229339473
     E_Harris            -1098.192870640653           -14941.680543689798
      E_Fermi              -13.851784302709             -188.463193983801

 PW ALGORITHM --------------- ION=   1  ELEC=  12--------------------------------
  K-point    CG iter num      Time(Sec)
        1      19.300000       0.576479
        2      24.766667       0.735958
        3      22.150000       0.661657
        4      22.816667       0.674215
        5      23.416667       0.683808
        6      22.733333       0.677576
        7      24.200000       0.724548
        8      23.433333       0.697964
        9      25.183333       0.744715
       10      23.700000       0.700119
       11      24.900000       0.733619
       12      24.733333       0.727225
       13      24.466667       0.725780
       14      24.416667       0.723516
       15      23.883333       0.713103
       16      22.183333       0.665035
       17      24.216667       0.716156
       18      23.383333       0.688434
       19      22.316667       0.658723
       20      23.783333       0.697932
       21      22.683333       0.669568
       22      24.050000       0.718820
       23      23.466667       0.692120
       24      24.150000       0.709153
       25      23.100000       0.678006
       26      20.600000       0.609942
       27      21.016667       0.630860
       28      23.866667       0.704498
       29      24.450000       0.716482
       30      22.750000       0.677662
       31      24.916667       0.728205

 Density error is 7603.382666575113
                          Error Threshold = 0.002846175570

       Energy                       Rydberg                            eV
   E_KohnSham             -506.618655100800            -6892.900422467639
     E_Harris             -581.017599365813            -7905.149989656249
      E_Fermi               -6.597088285990              -89.757990898515

 PW ALGORITHM --------------- ION=   1  ELEC=  13--------------------------------
  K-point    CG iter num      Time(Sec)
        1       9.466667       0.298047
        2      12.783333       0.401172
        3      13.166667       0.405784
        4      11.333333       0.353912
        5       9.833333       0.307855
        6       7.833333       0.254326
        7      12.183333       0.385386
        8      13.083333       0.411724
        9      13.266667       0.412562
       10      10.450000       0.330139
       11      12.050000       0.375592
       12      11.900000       0.371381
       13      10.800000       0.341002
       14      13.233333       0.408833
       15      12.966667       0.411310
       16      12.883333       0.398907
       17      13.350000       0.413025
       18      11.033333       0.346502
       19      12.516667       0.388823
       20      12.700000       0.396068
       21      12.033333       0.372367
       22      11.633333       0.371629
       23      11.250000       0.354251
       24      11.166667       0.348961
       25      12.333333       0.382743
       26      12.016667       0.374140
       27      12.400000       0.390614
       28       9.716667       0.307913
       29      12.233333       0.382104
       30      12.033333       0.378219
       31       8.666667       0.274811

 Density error is 6431.552556427324
                          Error Threshold = 0.002846175570

       Energy                       Rydberg                            eV
   E_KohnSham             -452.584575556386            -6157.729054478373
     E_Harris             -511.881184412383            -6964.500806997192
      E_Fermi               -5.525737978788              -75.181522166519

 PW ALGORITHM --------------- ION=   1  ELEC=  14--------------------------------
  K-point    CG iter num      Time(Sec)
        1      21.150000       0.617645
        2      25.400000       0.751135
        3      24.250000       0.715214
        4      24.500000       0.717349
        5      22.533333       0.661827
        6      22.283333       0.664839
        7      25.650000       0.763189
        8      26.116667       0.775065
        9      24.050000       0.709527
       10      23.933333       0.706951
       11      24.533333       0.722987
       12      25.733333       0.758913
       13      24.283333       0.717009
       14      24.783333       0.728140
       15      24.783333       0.736611
       16      25.050000       0.736872
       17      24.866667       0.727737
       18      21.950000       0.645057
       19      25.200000       0.737993
       20      22.916667       0.674212
       21      23.400000       0.685610
       22      23.033333       0.690539
       23      24.983333       0.734191
       24      23.600000       0.693120
       25      24.183333       0.710380
       26      22.000000       0.647458
       27      22.433333       0.668996
       28      22.250000       0.663627
       29      24.083333       0.705242
       30      22.500000       0.667556
       31      21.783333       0.643999

 Density error is 3998.095229688103
                          Error Threshold = 0.002846175570

       Energy                       Rydberg                            eV
   E_KohnSham             -210.207152102263            -2860.015028943459
     E_Harris             -474.576628420765            -6456.946284151146
      E_Fermi               -4.875238044202              -66.331016507520

 PW ALGORITHM --------------- ION=   1  ELEC=  15--------------------------------
  K-point    CG iter num      Time(Sec)
        1      14.533333       0.434860
        2      15.383333       0.462143
        3      16.116667       0.480594
        4      14.600000       0.436653
        5      14.250000       0.427249
        6      12.283333       0.374826
        7      16.766667       0.507588
        8      15.583333       0.470145
        9      16.000000       0.480506
       10      14.383333       0.433895
       11      15.866667       0.473262
       12      14.850000       0.445222
       13      14.033333       0.422989
       14      16.466667       0.491250
       15      15.566667       0.473339
       16      16.816667       0.501653
       17      16.433333       0.492182
       18      15.800000       0.471026
       19      15.366667       0.461189
       20      15.033333       0.455582
       21      15.783333       0.470727
       22      15.383333       0.466258
       23      15.450000       0.463158
       24      13.850000       0.418000
       25      15.033333       0.448213
       26      14.516667       0.435520
       27      15.316667       0.462095
       28      14.683333       0.440355
       29      15.383333       0.455278
       30      15.000000       0.449408
       31      12.183333       0.368574

 Density error is 2599.775478454506
                          Error Threshold = 0.002846175570

       Energy                       Rydberg                            eV
   E_KohnSham             -199.187029130588            -2710.078563867985
     E_Harris             -237.869237905562            -3236.377014433232
      E_Fermi               -1.275315716603              -17.351560494759

 PW ALGORITHM --------------- ION=   1  ELEC=  16--------------------------------
  K-point    CG iter num      Time(Sec)
        1       7.766667       0.248804
        2       8.916667       0.282738
        3       8.200000       0.266110
        4       7.900000       0.255526
        5       7.350000       0.237935
        6       5.966667       0.198971
        7       8.866667       0.283746
        8       8.550000       0.278240
        9       9.616667       0.305624
       10       7.133333       0.233657
       11       7.266667       0.236702
       12       7.266667       0.240174
       13       7.200000       0.234800
       14       9.533333       0.303444
       15       8.483333       0.275105
       16       7.916667       0.257961
       17       9.783333       0.311337
       18       7.300000       0.236396
       19       7.883333       0.256463
       20       7.200000       0.235024
       21       7.833333       0.254777
       22       6.716667       0.223338
       23       7.783333       0.251032
       24       7.333333       0.240695
       25       7.700000       0.248686
       26       7.966667       0.256900
       27       8.133333       0.264123
       28       7.333333       0.239100
       29       7.166667       0.234012
       30       7.150000       0.233196
       31       5.866667       0.194310

 Density error is 2694.602000871268
                          Error Threshold = 0.002846175570

       Energy                       Rydberg                            eV
   E_KohnSham             -164.338120028556            -2235.934830996281
     E_Harris             -205.890428648596            -2801.282993283344
      E_Fermi               -0.887076883203              -12.069300175639

 PW ALGORITHM --------------- ION=   1  ELEC=  17--------------------------------
  K-point    CG iter num      Time(Sec)
        1       5.966667       0.200137
        2       5.916667       0.197258
        3       6.250000       0.207964
        4       5.683333       0.188446
        5       5.050000       0.169926
        6       5.066667       0.173110
        7       6.400000       0.213368
        8       5.616667       0.189658
        9       5.500000       0.186752
       10       5.616667       0.188820
       11       4.883333       0.165970
       12       4.783333       0.164692
       13       5.583333       0.188482
       14       5.533333       0.186753
       15       5.550000       0.187075
       16       6.233333       0.207090
       17       5.800000       0.193142
       18       6.350000       0.211036
       19       5.766667       0.191910
       20       4.950000       0.168023
       21       5.716667       0.189734
       22       6.200000       0.207944
       23       5.566667       0.186589
       24       5.416667       0.182544
       25       5.550000       0.186098
       26       4.716667       0.160171
       27       4.750000       0.162810
       28       5.100000       0.172065
       29       5.283333       0.177466
       30       4.733333       0.163077
       31       5.616667       0.186477

 Density error is 3111.241882710814
                          Error Threshold = 0.002846175570

       Energy                       Rydberg                            eV
   E_KohnSham            +2331.944645893896           +31727.734604749283
     E_Harris             -168.968886626250            -2298.939642833003
      E_Fermi               -0.403085618148               -5.484261188663

 PW ALGORITHM --------------- ION=   1  ELEC=  18--------------------------------
  K-point    CG iter num      Time(Sec)
        1      84.883333       2.400058
        2      88.716667       2.609803
        3      82.250000       2.386501
        4      81.133333       2.332183
        5      79.350000       2.267193
        6      82.600000       2.388441
        7      84.100000       2.440201
        8      81.550000       2.367055
        9      82.366667       2.371042
       10      83.466667       2.406866
       11      80.366667       2.313169
       12      79.833333       2.300641
       13      79.183333       2.288430
       14      81.466667       2.361412
       15      82.083333       2.388252
       16      82.233333       2.382539
       17      85.900000       2.495035
       18      80.316667       2.306564
       19      80.900000       2.351873
       20      77.933333       2.233856
       21      82.400000       2.357096
       22      79.166667       2.311577
       23      82.083333       2.354774
       24      82.000000       2.353163
       25      80.233333       2.293307
       26      76.250000       2.186616
       27      77.716667       2.245447
       28      79.600000       2.283008
       29      78.200000       2.233503
       30      76.733333       2.205758
       31      82.533333       2.360072

 Density error is 21427.653964800749
                          Error Threshold = 0.002846175570

       Energy                       Rydberg                            eV
   E_KohnSham            -5252.787082445378           -71467.834702052918
     E_Harris            -7923.249381389185          -107801.338261868077
      E_Fermi             -104.105559723429            -1416.428805717940

 PW ALGORITHM --------------- ION=   1  ELEC=  19--------------------------------
  K-point    CG iter num      Time(Sec)
        1      38.466667       1.128803
        2      39.616667       1.177198
        3      42.583333       1.253736
        4      44.133333       1.295237
        5      43.750000       1.278170
        6      40.400000       1.192969
        7      42.333333       1.266576
        8      40.066667       1.197769
        9      45.333333       1.339969
       10      42.600000       1.248760
       11      41.050000       1.202193
       12      43.183333       1.266346
       13      43.350000       1.269998
       14      41.350000       1.218065
       15      41.983333       1.254763
       16      40.550000       1.190472
       17      45.250000       1.324887
       18      45.533333       1.329686
       19      46.950000       1.364557
       20      43.233333       1.259796
       21      46.250000       1.342382
       22      41.400000       1.234509
       23      46.516667       1.359688
       24      44.683333       1.303397
       25      46.166667       1.336745
       26      41.333333       1.203424
       27      42.616667       1.256251
       28      45.516667       1.336882
       29      43.383333       1.257261
       30      42.883333       1.261380
       31      43.900000       1.281684

 Density error is 16943.125066027122
                          Error Threshold = 0.002846175570

       Energy                       Rydberg                            eV
   E_KohnSham            -3305.147244536291           -44968.835254692924
     E_Harris            -5308.453712448483           -72225.218058552899
      E_Fermi              -71.021099319986             -966.291628975737

 PW ALGORITHM --------------- ION=   1  ELEC=  20--------------------------------
  K-point    CG iter num      Time(Sec)
        1      39.433333       1.128331
        2      45.983333       1.334568
        3      47.050000       1.362299
        4      45.600000       1.315581
        5      46.916667       1.343673
        6      48.516667       1.406191
        7      44.633333       1.302224
        8      45.566667       1.328632
        9      47.266667       1.366645
       10      47.750000       1.377081
       11      49.133333       1.415608
       12      48.183333       1.400789
       13      48.950000       1.416143
       14      45.633333       1.320867
       15      45.083333       1.318964
       16      46.100000       1.330159
       17      48.516667       1.395258
       18      48.100000       1.386832
       19      49.466667       1.421557
       20      47.966667       1.382625
       21      48.600000       1.396754
       22      47.083333       1.375604
       23      45.966667       1.329636
       24      49.000000       1.406801
       25      49.366667       1.455070
       26      47.366667       1.363456
       27      47.300000       1.373043
       28      47.850000       1.378992
       29      48.866667       1.398052
       30      47.066667       1.359359
       31      48.250000       1.383336

 Density error is 12035.516759784774
                          Error Threshold = 0.002846175570

       Energy                       Rydberg                            eV
   E_KohnSham            -2080.083902399864           -28300.993390714029
     E_Harris            -3384.948825972817           -46054.591471640706
      E_Fermi              -45.349391924170             -617.010131003894

 PW ALGORITHM --------------- ION=   1  ELEC=  21--------------------------------
  K-point    CG iter num      Time(Sec)
        1      31.283333       0.922868
        2      34.700000       1.039772
        3      36.583333       1.084571
        4      36.700000       1.081630
        5      36.066667       1.058682
        6      35.100000       1.043625
        7      35.000000       1.048439
        8      34.166667       1.024102
        9      36.133333       1.071299
       10      37.333333       1.104152
       11      37.166667       1.095582
       12      36.166667       1.073914
       13      37.483333       1.104514
       14      38.366667       1.133984
       15      34.883333       1.047778
       16      36.116667       1.072757
       17      37.416667       1.104270
       18      35.766667       1.057205
       19      36.083333       1.067043
       20      35.133333       1.035080
       21      36.183333       1.063087
       22      35.233333       1.055572
       23      36.150000       1.062702
       24      37.800000       1.109452
       25      35.900000       1.058106
       26      34.566667       1.016627
       27      35.200000       1.046956
       28      35.116667       1.036122
       29      36.933333       1.082136
       30      34.933333       1.036202
       31      35.816667       1.049975

 Density error is 9252.080397834952
                          Error Threshold = 0.002846175570

       Energy                       Rydberg                            eV
   E_KohnSham            -1265.503868811739           -17218.063456884134
     E_Harris            -2109.259806700778           -28697.951933509168
      E_Fermi              -28.180164786947             -383.410811681433

 PW ALGORITHM --------------- ION=   1  ELEC=  22--------------------------------
  K-point    CG iter num      Time(Sec)
        1      33.916667       0.992374
        2      32.866667       0.960266
        3      34.466667       1.026976
        4      34.666667       1.024149
        5      32.350000       0.932983
        6      33.850000       1.008467
        7      32.833333       0.958936
        8      32.600000       0.952191
        9      36.200000       1.071832
       10      36.366667       1.073065
       11      35.500000       1.050171
       12      34.783333       1.030829
       13      33.850000       0.979807
       14      35.866667       1.065075
       15      33.166667       0.975617
       16      32.583333       0.949568
       17      35.816667       1.080964
       18      34.716667       1.025011
       19      36.400000       1.069481
       20      31.233333       0.902562
       21      35.550000       1.042755
       22      34.400000       1.035951
       23      31.516667       0.914931
       24      36.666667       1.075380
       25      36.233333       1.064409
       26      30.883333       0.890684
       27      30.683333       0.899102
       28      32.766667       0.951168
       29      34.833333       1.028437
       30      32.000000       0.932099
       31      35.216667       1.039067

 Density error is 6347.502185740631
                          Error Threshold = 0.002846175570

       Energy                       Rydberg                            eV
   E_KohnSham            -1025.320290000183           -13950.198219014916
     E_Harris            -1324.890687629192           -18026.062578895129
      E_Fermi              -16.884716610994             -229.728355024766

 PW ALGORITHM --------------- ION=   1  ELEC=  23--------------------------------
  K-point    CG iter num      Time(Sec)
        1      10.466667       0.330132
        2      14.766667       0.458624
        3      17.666667       0.541873
        4      18.166667       0.555303
        5      17.350000       0.527873
        6      15.516667       0.485044
        7      14.616667       0.455265
        8      15.250000       0.476480
        9      17.366667       0.533690
       10      17.666667       0.544657
       11      17.216667       0.529131
       12      16.966667       0.523478
       13      18.550000       0.566340
       14      16.500000       0.508308
       15      15.333333       0.481574
       16      18.666667       0.574745
       17      16.016667       0.493386
       18      17.483333       0.536257
       19      18.350000       0.562142
       20      16.983333       0.521334
       21      18.300000       0.557362
       22      17.266667       0.536609
       23      19.266667       0.586407
       24      18.900000       0.573156
       25      18.500000       0.561443
       26      16.216667       0.494035
       27      16.016667       0.498414
       28      17.533333       0.534095
       29      17.050000       0.521387
       30      17.650000       0.541719
       31      15.250000       0.472005

 Density error is 6486.171159379027
                          Error Threshold = 0.002846175570

       Energy                       Rydberg                            eV
   E_KohnSham             +355.087174476579            +4831.208859601638
     E_Harris            -1043.151347140029           -14192.802197480392
      E_Fermi              -13.239480098037             -180.132367890901

 PW ALGORITHM --------------- ION=   1  ELEC=  24--------------------------------
  K-point    CG iter num      Time(Sec)
        1      44.516667       1.264628
        2      44.266667       1.287425
        3      44.833333       1.299441
        4      43.083333       1.242815
        5      44.266667       1.262332
        6      41.633333       1.215182
        7      45.566667       1.324076
        8      44.000000       1.284983
        9      44.450000       1.290462
       10      43.216667       1.256087
       11      41.150000       1.192823
       12      42.033333       1.220143
       13      43.016667       1.247645
       14      44.500000       1.294653
       15      44.033333       1.293286
       16      43.983333       1.275181
       17      45.083333       1.303546
       18      41.916667       1.209691
       19      42.733333       1.241179
       20      41.116667       1.192935
       21      44.116667       1.269722
       22      41.800000       1.222489
       23      43.083333       1.247244
       24      43.316667       1.250405
       25      43.100000       1.239090
       26      41.350000       1.190091
       27      43.183333       1.266656
       28      42.966667       1.239668
       29      42.883333       1.230490
       30      40.750000       1.182679
       31      42.616667       1.235627

 Density error is 13663.880109014830
                          Error Threshold = 0.002846175570

       Energy                       Rydberg                            eV
   E_KohnSham             +277.251234023524            +3772.196560251391
     E_Harris             -814.082900916595           -11076.166096835117
      E_Fermi               -8.926452488239             -121.450616766325

 PW ALGORITHM --------------- ION=   1  ELEC=  25--------------------------------
  K-point    CG iter num      Time(Sec)
        1      27.766667       0.790787
        2      26.533333       0.767776
        3      28.316667       0.813336
        4      27.050000       0.777379
        5      28.250000       0.813571
        6      25.566667       0.748314
        7      26.816667       0.788454
        8      25.500000       0.744699
        9      26.116667       0.759714
       10      26.783333       0.778625
       11      27.250000       0.788102
       12      27.850000       0.803682
       13      27.133333       0.785352
       14      26.050000       0.757590
       15      25.333333       0.747316
       16      27.583333       0.796741
       17      25.933333       0.751535
       18      25.183333       0.729689
       19      27.233333       0.790392
       20      26.866667       0.773557
       21      27.516667       0.793544
       22      25.833333       0.759702
       23      26.250000       0.759761
       24      26.983333       0.778592
       25      27.616667       0.795783
       26      26.033333       0.754512
       27      26.500000       0.779222
       28      28.866667       0.833623
       29      27.650000       0.791238
       30      26.066667       0.758122
       31      26.000000       0.751246

 Density error is 3486.027528443982
                          Error Threshold = 0.002846175570

       Energy                       Rydberg                            eV
   E_KohnSham             -281.915072354641            -3835.651336105394
     E_Harris             -468.232248374471            -6370.626565244040
      E_Fermi               -4.157970975277              -56.572097382381

 PW ALGORITHM --------------- ION=   1  ELEC=  26--------------------------------
  K-point    CG iter num      Time(Sec)
        1      64.050000       1.787460
        2      65.116667       1.863686
        3      69.216667       2.007338
        4      70.783333       2.036440
        5      71.116667       2.038992
        6      66.800000       1.938978
        7      65.066667       1.864443
        8      66.166667       1.898792
        9      67.416667       1.945218
       10      69.616667       2.003430
       11      69.250000       1.997163
       12      69.600000       2.010936
       13      69.966667       2.019681
       14      64.583333       1.847827
       15      68.733333       2.001999
       16      65.750000       1.868206
       17      65.266667       1.854784
       18      67.116667       1.931960
       19      69.100000       1.983571
       20      69.716667       2.001925
       21      70.683333       2.052365
       22      66.633333       1.951915
       23      71.966667       2.083178
       24      68.500000       1.965925
       25      71.166667       2.040760
       26      69.200000       2.088853
       27      66.416667       2.004585
       28      70.583333       2.042274
       29      70.083333       2.019182
       30      69.850000       2.027631
       31      66.950000       1.932432

 Density error is 12664.510100595586
                          Error Threshold = 0.002846175570

       Energy                       Rydberg                            eV
   E_KohnSham            -1450.096122753403           -19729.569917153734
     E_Harris            -4639.653780981085           -63125.728168586793
      E_Fermi              -59.184277932692             -805.243411900275

 PW ALGORITHM --------------- ION=   1  ELEC=  27--------------------------------
  K-point    CG iter num      Time(Sec)
        1      33.683333       0.947483
        2      39.833333       1.152247
        3      45.116667       1.312505
        4      47.850000       1.367310
        5      46.533333       1.332112
        6      42.283333       1.236736
        7      39.750000       1.157290
        8      41.050000       1.192317
        9      43.100000       1.251829
       10      45.300000       1.307701
       11      48.466667       1.393723
       12      47.933333       1.379932
       13      45.500000       1.320780
       14      42.550000       1.227621
       15      39.450000       1.158113
       16      46.433333       1.340227
       17      43.266667       1.252204
       18      44.016667       1.270607
       19      47.983333       1.376183
       20      45.950000       1.322113
       21      46.400000       1.327822
       22      44.116667       1.301997
       23      46.950000       1.349312
       24      45.883333       1.318090
       25      48.316667       1.384704
       26      45.866667       1.320099
       27      45.166667       1.320095
       28      45.216667       1.301554
       29      48.600000       1.389935
       30      46.550000       1.347877
       31      40.750000       1.180951

 Density error is 6290.625102547165
                          Error Threshold = 0.002846175570

       Energy                       Rydberg                            eV
   E_KohnSham             -825.128261438326           -11226.445936394904
     E_Harris            -1991.786956212021           -27099.651806559985
      E_Fermi              -25.044184570272             -340.743611919382

 PW ALGORITHM --------------- ION=   1  ELEC=  28--------------------------------
  K-point    CG iter num      Time(Sec)
        1      25.250000       0.723337
        2      29.783333       0.866938
        3      29.483333       0.859961
        4      28.533333       0.826906
        5      28.983333       0.832724
        6      27.183333       0.798069
        7      29.500000       0.860104
        8      30.650000       0.892753
        9      29.883333       0.879260
       10      29.883333       0.875656
       11      29.150000       0.850232
       12      29.883333       0.872427
       13      29.766667       0.873378
       14      30.600000       0.897073
       15      30.233333       0.893567
       16      29.850000       0.869121
       17      30.450000       0.887946
       18      30.183333       0.877529
       19      29.783333       0.870206
       20      27.266667       0.795678
       21      29.733333       0.865578
       22      29.016667       0.852797
       23      29.666667       0.861847
       24      29.533333       0.863130
       25      28.866667       0.839492
       26      26.666667       0.776560
       27      27.000000       0.799825
       28      27.350000       0.792946
       29      29.133333       0.845332
       30      27.483333       0.808434
       31      27.450000       0.798178

 Density error is 3959.623836958521
                          Error Threshold = 0.002846175570

       Energy                       Rydberg                            eV
   E_KohnSham             -471.607910338118            -6416.554802471515
     E_Harris             -912.410202706069           -12413.977670137556
      E_Fermi              -10.559190581981             -143.665158182881

 PW ALGORITHM --------------- ION=   1  ELEC=  29--------------------------------
  K-point    CG iter num      Time(Sec)
        1      27.050000       0.781647
        2      27.000000       0.790836
        3      27.200000       0.792122
        4      27.433333       0.795480
        5      25.566667       0.743735
        6      25.666667       0.753796
        7      26.583333       0.785941
        8      26.983333       0.794103
        9      25.866667       0.757004
       10      26.266667       0.763709
       11      24.650000       0.718232
       12      24.583333       0.715699
       13      26.516667       0.774923
       14      26.500000       0.776914
       15      26.133333       0.775413
       16      26.650000       0.782234
       17      26.250000       0.766955
       18      25.683333       0.747177
       19      24.350000       0.711756
       20      23.833333       0.691043
       21      24.533333       0.708212
       22      25.066667       0.739863
       23      25.933333       0.755882
       24      25.883333       0.749269
       25      24.716667       0.712955
       26      23.500000       0.678064
       27      23.483333       0.692207
       28      24.233333       0.708049
       29      24.266667       0.702070
       30      25.116667       0.740558
       31      24.916667       0.725522

 Density error is 4472.806357087844
[...]
      51       9.390918       0.000000
      52       9.629676       0.000000
      53       9.629676       0.000000
      54       9.726551       0.000000
      55       9.726585       0.000000
      56      10.634214       0.000000
      57      10.634216       0.000000
      58      10.655486       0.000000
      59      10.655486       0.000000
      60      10.683408       0.000000

 28/31 kpoint (Cartesian) = 0.848528 0.489898 0.000000 (694 pws)
       1       0.225081       0.040000
       2       0.286170       0.040000
       3       0.288126       0.040000
       4       0.471221       0.040000
       5       0.475376       0.040000
       6       0.779949       0.040000
       7       0.786802       0.040000
       8       1.211796       0.040000
       9       1.222337       0.040000
      10       1.765791       0.040000
      11       1.781804       0.040000
      12       2.440014       0.040000
      13       2.464909       0.040000
      14       3.230117       0.040000
      15       3.271148       0.040000
      16       4.123716       0.040000
      17       4.199394       0.040000
      18       5.068768       0.040000
      19       5.238134       0.040000
      20       5.241801       0.040000
      21       5.289175       0.040000
      22       5.312335       0.040000
      23       5.455757       0.040000
      24       5.503510       0.040000
      25       5.661192       0.040000
      26       5.734100       0.040000
      27       5.816518       0.040000
      28       6.251771       0.040000
      29       6.430096       0.040000
      30       6.809181       0.040000
      31       7.059773       0.040000
      32       7.105636       0.040000
      33       7.488225       0.040000
      34       7.678157       0.040000
      35       7.718467       0.040000
      36       7.997821       0.039844
      37       8.287811       0.003155
      38       8.446703       0.000005
      39       9.122187       0.000000
      40       9.205898       0.000000
      41       9.336255       0.000000
      42       9.359213       0.000000
      43      10.238516       0.000000
      44      10.402801       0.000000
      45      10.631640       0.000000
      46      10.847471       0.000000
      47      11.376344       0.000000
      48      11.570163       0.000000
      49      12.223491       0.000000
      50      12.492035       0.000000
      51      12.609833       0.000000
      52      12.871289       0.000000
      53      13.794993       0.000000
      54      13.836355       0.000000
      55      14.254187       0.000000
      56      14.282576       0.000000
      57      14.494159       0.000000
      58      14.556220       0.000000
      59      14.556976       0.000000
      60      14.743089       0.000000

 29/31 kpoint (Cartesian) = 0.848528 0.326599 0.000000 (668 pws)
       1       1.482953       0.080000
       2       1.543250       0.080000
       3       1.546324       0.080000
       4       1.726881       0.080000
       5       1.733490       0.080000
       6       2.033215       0.080000
       7       2.044404       0.080000
       8       2.460978       0.080000
       9       2.478840       0.080000
      10       3.007494       0.080000
      11       3.036038       0.080000
      12       3.666058       0.080000
      13       3.710021       0.080000
      14       3.986018       0.080000
      15       4.045244       0.080000
      16       4.070051       0.080000
      17       4.220290       0.080000
      18       4.251281       0.080000
      19       4.414442       0.080000
      20       4.507976       0.080000
      21       4.531612       0.080000
      22       4.561613       0.080000
      23       4.889619       0.080000
      24       4.995502       0.080000
      25       5.134447       0.080000
      26       5.269120       0.080000
      27       5.452551       0.080000
      28       5.552117       0.080000
      29       6.230584       0.080000
      30       6.495760       0.080000
      31       6.667780       0.080000
      32       6.904839       0.080000
      33       7.029441       0.080000
      34       7.263374       0.080000
      35       7.653626       0.080000
      36       7.902237       0.079998
      37       7.945798       0.079972
      38       8.134753       0.061562
      39       8.917688       0.000000
      40       8.972967       0.000000
      41       9.151741       0.000000
      42       9.163305       0.000000
      43      10.089425       0.000000
      44      10.231309       0.000000
      45      10.323960       0.000000
      46      10.548752       0.000000
      47      11.184031       0.000000
      48      11.206453       0.000000
      49      11.381642       0.000000
      50      11.463609       0.000000
      51      11.559427       0.000000
      52      11.620870       0.000000
      53      11.947232       0.000000
      54      12.075222       0.000000
      55      12.177151       0.000000
      56      12.269680       0.000000
      57      12.368419       0.000000
      58      12.586878       0.000000
      59      12.630447       0.000000
      60      13.005800       0.000000

 30/31 kpoint (Cartesian) = 0.565685 0.653197 0.000000 (716 pws)
       1       3.240977       0.040000
       2       3.240977       0.040000
       3       3.300243       0.040000
       4       3.300243       0.040000
       5       3.304260       0.040000
       6       3.304263       0.040000
       7       3.481433       0.040000
       8       3.481433       0.040000
       9       3.489953       0.040000
      10       3.489958       0.040000
      11       3.782973       0.040000
      12       3.782974       0.040000
      13       3.794345       0.040000
      14       3.794350       0.040000
      15       4.201057       0.040000
      16       4.201068       0.040000
      17       4.242982       0.040000
      18       4.242987       0.040000
      19       4.724911       0.040000
      20       4.725031       0.040000
      21       4.791723       0.040000
      22       4.791728       0.040000
      23       5.311471       0.040000
      24       5.311505       0.040000
      25       5.464709       0.040000
      26       5.464712       0.040000
      27       5.685179       0.040000
      28       6.254278       0.040000
      29       6.254278       0.040000
      30       6.993902       0.040000
      31       7.148739       0.040000
      32       7.148739       0.040000
      33       7.490113       0.040000
      34       7.490147       0.040000
      35       8.100567       0.035531
      36       8.100567       0.035531
      37       8.236169       0.009839
      38       8.293043       0.002745
      39       8.293100       0.002741
      40       8.401689       0.000052
      41       8.401912       0.000051
      42       8.500569       0.000000
      43       8.500801       0.000000
      44       8.687273       0.000000
      45       8.687314       0.000000
      46       8.779395       0.000000
      47       8.779400       0.000000
      48       9.592678       0.000000
      49       9.592688       0.000000
      50      10.003391       0.000000
      51      10.003393       0.000000
      52      10.073616       0.000000
      53      10.073618       0.000000
      54      10.657934       0.000000
      55      10.657935       0.000000
      56      10.872439       0.000000
      57      10.872441       0.000000
      58      10.943613       0.000000
      59      10.943618       0.000000
      60      11.428265       0.000000

 31/31 kpoint (Cartesian) = 0.707107 0.408248 0.000000 (688 pws)
       1       2.487110       0.020000
       2       2.487110       0.020000
       3       2.545739       0.020000
       4       2.545739       0.020000
       5       2.551251       0.020000
       6       2.551254       0.020000
       7       2.726444       0.020000
       8       2.726445       0.020000
       9       2.738072       0.020000
      10       2.738077       0.020000
      11       3.027575       0.020000
      12       3.027576       0.020000
      13       3.043446       0.020000
      14       3.043451       0.020000
      15       3.445221       0.020000
      16       3.445231       0.020000
      17       3.497784       0.020000
      18       3.497790       0.020000
      19       3.968345       0.020000
      20       3.968466       0.020000
      21       4.050071       0.020000
      22       4.050076       0.020000
      23       4.553045       0.020000
      24       4.553080       0.020000
      25       4.730369       0.020000
      26       4.730372       0.020000
      27       4.923405       0.020000
      28       5.533788       0.020000
      29       5.533789       0.020000
      30       6.253188       0.020000
      31       6.458834       0.020000
      32       6.458835       0.020000
      33       6.747338       0.020000
      34       6.747372       0.020000
      35       7.503617       0.020000
      36       7.503617       0.020000
      37       7.703195       0.020000
      38       7.703316       0.020000
      39       8.664501       0.000000
      40       8.664502       0.000000
      41       8.843650       0.000000
      42       8.843661       0.000000
      43       9.941077       0.000000
      44       9.941083       0.000000
      45      10.129958       0.000000
      46      10.129960       0.000000
      47      11.310373       0.000000
      48      11.310439       0.000000
      49      11.539977       0.000000
      50      11.539978       0.000000
      51      12.738520       0.000000
      52      12.738539       0.000000
      53      13.072432       0.000000
      54      13.072432       0.000000
      55      13.841459       0.000000
      56      14.241011       0.000000
      57      14.303431       0.000000
      58      14.303487       0.000000
      59      14.490654       0.000000
      60      14.490924       0.000000




 ><><><><><><><><><><><><><><><><><><><><><><

    TOTAL-FORCE (eV/Angstrom)

 ><><><><><><><><><><><><><><><><><><><><><><

     atom              x              y              z
      Al1              0              0              0
      Al2              0              0      +0.000482
      Al3              0              0      +0.000863
      Al4              0              0      +0.000004
      Al5      -0.000000              0      -0.001527
      Al6      -0.000000              0      -0.001809
      Al7      +0.000000              0      -0.001320
      Al8      +0.000001      +0.000000      -0.001837
      Al9      +0.000001      +0.000000      -0.003134
     Al10      +0.000001      +0.000001      -0.003299
     Al11      +0.000000              0      -0.001444
     Al12      -0.000000              0      +0.001444
     Al13      -0.000001      -0.000001      +0.003299
     Al14      -0.000001      -0.000000      +0.003134
     Al15      -0.000001      -0.000000      +0.001837
     Al16      -0.000000              0      +0.001320
     Al17      +0.000000              0      +0.001809
     Al18      +0.000000              0      +0.001527
     Al19              0              0      -0.000004
     Al20              0              0      -0.000863
     Al21              0              0      -0.000482


 ><><><><><><><><><><><><><><><><><><><><><><

 TOTAL-STRESS (KBAR)

 ><><><><><><><><><><><><><><><><><><><><><><

      -17.262892      -0.000005      -0.000003
       -0.000005     -17.262886      -0.000002
       -0.000003      -0.000002      -0.000042

 Ion relaxation is converged!

 Energy difference (Ry) = +0.000000

 Largest gradient is (eV/A) = +0.003299
 end of geometry optimization
                                    istep = +1
                         update iteration = +12

 DIRECT COORDINATES
         atom                   x                   y                   z                 mag                  vx                  vy                  vz
     taud_Al1           +0.000000           +0.000000           +0.000000           +0.000000           +0.000000           +0.000000           +0.000000
     taud_Al2           +0.333333           +0.333333           +0.047619           +0.000000           +0.000000           +0.000000           +0.000000
     taud_Al3           +0.666667           +0.666667           +0.095238           +0.000000           +0.000000           +0.000000           +0.000000
     taud_Al4           +0.000000           +0.000000           +0.142857           +0.000000           +0.000000           +0.000000           +0.000000
     taud_Al5           +0.333333           +0.333333           +0.190476           +0.000000           +0.000000           +0.000000           +0.000000
     taud_Al6           +0.666667           +0.666667           +0.238095           +0.000000           +0.000000           +0.000000           +0.000000
     taud_Al7           +0.000000           +0.000000           +0.285714           +0.000000           +0.000000           +0.000000           +0.000000
     taud_Al8           +0.333333           +0.333333           +0.333333           +0.000000           +0.000000           +0.000000           +0.000000
     taud_Al9           +0.666667           +0.666667           +0.380952           +0.000000           +0.000000           +0.000000           +0.000000
    taud_Al10           +0.000000           +0.000000           +0.428571           +0.000000           +0.000000           +0.000000           +0.000000
    taud_Al11           +0.333333           +0.333333           +0.476190           +0.000000           +0.000000           +0.000000           +0.000000
    taud_Al12           +0.666667           +0.666667           +0.523810           +0.000000           +0.000000           +0.000000           +0.000000
    taud_Al13           +0.000000           +0.000000           +0.571429           +0.000000           +0.000000           +0.000000           +0.000000
    taud_Al14           +0.333333           +0.333333           +0.619048           +0.000000           +0.000000           +0.000000           +0.000000
    taud_Al15           +0.666667           +0.666667           +0.666667           +0.000000           +0.000000           +0.000000           +0.000000
    taud_Al16           +0.000000           +0.000000           +0.714286           +0.000000           +0.000000           +0.000000           +0.000000
    taud_Al17           +0.333333           +0.333333           +0.761905           +0.000000           +0.000000           +0.000000           +0.000000
    taud_Al18           +0.666667           +0.666667           +0.809524           +0.000000           +0.000000           +0.000000           +0.000000
    taud_Al19           +0.000000           +0.000000           +0.857143           +0.000000           +0.000000           +0.000000           +0.000000
    taud_Al20           +0.333333           +0.333333           +0.904762           +0.000000           +0.000000           +0.000000           +0.000000
    taud_Al21           +0.666667           +0.666667           +0.952381           +0.000000           +0.000000           +0.000000           +0.000000


 Lattice relaxation is converged!

 Largest gradient is = +0.003836
 end of lattice optimization
                                    istep = +12
                         update iteration = +1


 --------------------------------------------
 !FINAL_ETOT_IS -1216.8328885229550451 eV
 --------------------------------------------






  |CLASS_NAME---------|NAME---------------|TIME(Sec)-----|CALLS----|AVG------|PER%-------
                                      total      +3466.071       127    +27.29   +100.00%
                 Run_pw     plane_wave_line       +3466.07         1  +3466.07   +100.00%
               Symmetry           analy_sys       +2663.71         6   +443.95    +76.85%
                 mymath            heapsort          +0.10     35544     +0.00     +0.00%
               PW_Basis              gen_pw          +0.15         1     +0.15     +0.00%
          PW_complement        get_total_pw          +0.44       120     +0.00     +0.01%
          PW_complement      setup_GVectors          +0.10       120     +0.00     +0.00%
               PW_Basis  setup_struc_factor          +0.23        23     +0.01     +0.01%
                Cell_PW        opt_cells_pw       +3465.85         1  +3465.85    +99.99%
              ppcell_vl           init_vloc          +3.16        12     +0.26     +0.09%
              Potential            init_pot          +0.37        12     +0.03     +0.01%
              Potential       set_local_pot          +0.20        12     +0.02     +0.01%
                    FFT               FFT3D       +2388.61  14349195     +0.00    +68.91%
                 Charge          atomic_rho          +0.13         1     +0.13     +0.00%
              Potential            v_of_rho          +0.76       311     +0.00     +0.02%
                H_XC_pw                v_xc          +0.46       323     +0.00     +0.01%
           H_Hartree_pw           v_hartree          +0.30       311     +0.00     +0.01%
               wavefunc             wfcinit         +28.92        12     +2.41     +0.83%
                 WF_igk                ekin          +0.10      9641     +0.00     +0.00%
              WF_atomic          atomic_wfc          +0.13       372     +0.00     +0.00%
                 WF_igk              get_sk          +0.12      7812     +0.00     +0.00%
              Hamilt_PW      diagH_subspace        +284.09     10751     +0.03     +8.20%
              Hamilt_PW               h_psi       +2609.53   6261566     +0.00    +75.29%
              Hamilt_PW                vloc       +2584.95   6261566     +0.00    +74.58%
              Hamilt_PW                 vnl          +2.07   6261566     +0.00     +0.06%
              Hamilt_PW                meta          +2.25   6261566     +0.00     +0.06%
                 Hamilt        diagH_LAPACK         +13.18     10751     +0.00     +0.38%
                   Ions         opt_ions_pw       +3463.15         1  +3463.15    +99.92%
              Electrons     self_consistent       +3421.88        12   +285.16    +98.72%
               Symmetry        rho_symmetry          +2.62       311     +0.01     +0.08%
              Electrons             c_bands       +3205.21       299    +10.72    +92.47%
                 Hamilt            diagH_pw       +3203.68      9269     +0.35    +92.43%
               Diago_CG                diag       +2929.19     10441     +0.28    +84.51%
                 Charge            sum_band        +185.30       299     +0.62     +5.35%
                 Charge             rho_mpi          +3.53       299     +0.01     +0.10%
                 Charge             mix_rho          +1.09       299     +0.00     +0.03%
                 Forces        cal_force_ew          +0.10        12     +0.01     +0.00%
                 Forces        cal_force_nl        +802.07         6   +133.68    +23.14%
              Stress_PW          cal_stress          +6.39        12     +0.53     +0.18%
            Stress_Func           stress_ew        +802.17         6   +133.70    +23.14%
             Force_Func           stress_ew        +802.17         6   +133.70    +23.14%
            Stress_Func          stress_loc          +5.63        12     +0.47     +0.16%
               PW_Basis     update_gvectors          +0.61        11     +0.06     +0.02%
 ----------------------------------------------------------------------------------------

 CLASS_NAME---------|NAME---------------|MEMORY(MB)--------
                                         +272.2797
             wavefunc                 evc       +21.6833
 ----------------------------------------------------------

 Start  Time  : Fri Sep 24 12:20:26 2021
 Finish Time  : Fri Sep 24 13:18:12 2021
 Total  Time  : 0 h 57 mins 46 secs 
