 *********************************************************
 *                                                       *
 *                  WELCOME TO ABACUS v3.0               *
 *                                                       *
 *            'Atomic-orbital Based Ab-initio            *
 *                  Computation at UStc'                 *
 *                                                       *
 *          Website: http://abacus.ustc.edu.cn/          *
 *                                                       *
 *********************************************************
 Mon Apr 17 14:43:51 2023
 MAKE THE DIR         : OUT.blpstest/
Notice: symbol 'al_locpsp' is not an element symbol!!!! set the covalent radius to be 0.
 UNIFORM GRID DIM     : 27 * 27 * 45
 UNIFORM GRID DIM(BIG): 27 * 27 * 45
func,idXC_GGA_X_PBE 101
func,idXC_GGA_C_PBE 130
 DONE(0.259184   SEC) : SETUP UNITCELL
 DONE(0.330855   SEC) : SYMMETRY
 DONE(0.392085   SEC) : INIT K-POINTS
 ---------------------------------------------------------
 Self-consistent calculations for electrons
 ---------------------------------------------------------
 SPIN    KPOINTS         PROCESSORS  
 1       133             1           
 ---------------------------------------------------------
 Use plane wave basis
 ---------------------------------------------------------
 ELEMENT NATOM       XC          
 Al      2           
 ---------------------------------------------------------
 Initial plane wave basis and FFT box
 ---------------------------------------------------------
 DONE(0.398209   SEC) : INIT BASIS
 DONE(0.398238   SEC) : INIT PHI
 DONE(0.685261   SEC) : LOCAL POTENTIAL
 DONE(0.685303   SEC) : NON-LOCAL POTENTIAL
 START CHARGE      : atomic
 DONE(1.12719    SEC) : INIT POTENTIAL
 DONE(1.12739    SEC) : INIT OPTIMIZATION
 DONE(1.12945    SEC) : INIT KEDF
======================== Running OFDFT ========================
Iter        Etot(Ha)          Theta      PotNorm     deltaE(Ha)
0     -4.039865623525e+00   2.000e-01   2.058e-01   -4.040e+00  
1     -4.054352042512e+00   3.757e-02   2.454e-01   -1.449e-02  
2     -4.054440048774e+00   2.112e-03   2.464e-01   -8.801e-05  
3     -4.110539394393e+00   4.435e-02   2.985e-01   -5.610e-02  
4     -4.152097475026e+00   3.785e-02   3.520e-01   -4.156e-02  
5     -4.200906103923e+00   3.459e-02   3.433e-02   -4.881e-02  
6     -4.201501205065e+00   4.887e-03   9.874e-03   -5.951e-04  
7     -4.201584449227e+00   2.793e-03   1.176e-03   -8.324e-05  
8     -4.201585283517e+00   2.621e-04   7.461e-04   -8.343e-07  
9     -4.201585451361e+00   7.030e-05   2.747e-04   -1.678e-07  
10    -4.201585511484e+00   8.100e-05   1.567e-04   -6.012e-08  

  |CLASS_NAME---------|NAME---------------|TIME(Sec)-----|CALLS----|AVG------|PER%-------
                       total               28.449         21        1.4       1e+02     %
   Driver              driver_line         28.418         1         28        1e+02     %
   PW_Basis            setuptransform      0.21441        1         0.21      0.75      %
   ppcell_vl           init_vloc           0.28685        1         0.29      1         %
   Charge              atomic_rho          0.36283        1         0.36      1.3       %
   PW_Basis            recip2real          4.5559         2384      0.0019    16        %
   PW_Basis            gathers_scatterp    0.42084        2384      0.00018   1.5       %
   Potential           update_from_charge  16.428         265       0.062     58        %
   Potential           cal_v_eff           16.408         265       0.062     58        %
   H_Hartree_pw        v_hartree           1.4272         265       0.0054    5         %
   PW_Basis            real2recip          5.9447         2912      0.002     21        %
   PW_Basis            gatherp_scatters    0.39001        2912      0.00013   1.4       %
   PotXC               cal_v_eff           14.935         265       0.056     52        %
   XC_Functional       v_xc                13.801         133       0.1       49        %
   XC_Functional       v_xc_libxc          14.845         265       0.056     52        %
   ESolver_OF          Run                 27.319         1         27        96        %
   KEDF_TF             tf_potential        1.9027         264       0.0072    6.7       %
   KEDF_WT             wt_potential        7.1971         264       0.027     25        %
   KEDF_vW             vw_potential        1.2086         264       0.0046    4.2       %
 ----------------------------------------------------------------------------------------

 START  Time  : Mon Apr 17 14:43:51 2023
 FINISH Time  : Mon Apr 17 14:44:20 2023
 TOTAL  Time  : 29
 SEE INFORMATION IN : OUT.blpstest/
