                                                                                     
                             WELCOME TO ABACUS v3.0                                  
                                                                                     
               'Atomic-orbital Based Ab-initio Computation at UStc'                  
                                                                                     
                     Website: http://abacus.ustc.edu.cn/                             
                                                                                     
    Version: Parallel, in development
    Processor Number is 1
    Start Time is Mon May 15 11:32:24 2023
                                                                                     
 ------------------------------------------------------------------------------------

 READING GENERAL INFORMATION
                           global_out_dir = OUT.oftest/
                           global_in_card = INPUT
                               pseudo_dir = 
                              orbital_dir = 
                                    DRANK = 1
                                    DSIZE = 1
                                   DCOLOR = 1
                                    GRANK = 1
                                    GSIZE = 1
 The esolver type has been set to : ofdft




 >>>>>>>>>>>>>>>>>>>>>>>>>>>>>>>>>>>>>>>>>>>>>>>>>>>>>>>>>>>>>>>>>>>>>>
 |                                                                    |
 | Reading atom information in unitcell:                              |
 | From the input file and the structure file we know the number of   |
 | different elments in this unitcell, then we list the detail        |
 | information for each element, especially the zeta and polar atomic |
 | orbital number for each element. The total atom number is counted. |
 | We calculate the nearest atom distance for each atom and show the  |
 | Cartesian and Direct coordinates for each atom. We list the file   |
 | address for atomic orbitals. The volume and the lattice vectors    |
 | in real and reciprocal space is also shown.                        |
 |                                                                    |
 <<<<<<<<<<<<<<<<<<<<<<<<<<<<<<<<<<<<<<<<<<<<<<<<<<<<<<<<<<<<<<<<<<<<<<




 READING UNITCELL INFORMATION
                                    ntype = 2
                 atom label for species 1 = Li
                 atom label for species 2 = Mg
                  lattice constant (Bohr) = 1.88973
              lattice constant (Angstrom) = 1

 READING ATOM TYPE 1
                               atom label = Li
                      L=0, number of zeta = 1
                      L=1, number of zeta = 1
                      L=2, number of zeta = 1
             number of atom for this type = 2
                      start magnetization = FALSE
                      start magnetization = FALSE

 READING ATOM TYPE 2
                               atom label = Mg
                      L=0, number of zeta = 1
                      L=1, number of zeta = 1
                      L=2, number of zeta = 1
             number of atom for this type = 4
                      start magnetization = FALSE
                      start magnetization = FALSE
                      start magnetization = FALSE
                      start magnetization = FALSE

                        TOTAL ATOM NUMBER = 6

 DIRECT COORDINATES
         atom                   x                   y                   z                 mag                  vx                  vy                  vz
     taud_Li1                   0                 0.5                 0.5                   0                   0                   0                   0
     taud_Li2                 0.5                   0                   0                   0                   0                   0                   0
     taud_Mg1                 0.5                   0            0.341318                   0                   0                   0                   0
     taud_Mg2                 0.5                   0            0.658682                   0                   0                   0                   0
     taud_Mg3                   0                 0.5            0.841318                   0                   0                   0                   0
     taud_Mg4                   0                 0.5            0.158682                   0                   0                   0                   0


                          Volume (Bohr^3) = 831.875
                             Volume (A^3) = 123.271

 Lattice vectors: (Cartesian coordinate: in unit of a_0)
             +3.45383                  +0                  +0
                   +0            +3.46492                  +0
                   +0                  +0            +10.3007
 Reciprocal vectors: (Cartesian coordinate: in unit of 2 pi/a_0)
            +0.289533                  -0                  +0
                   -0           +0.288607                  -0
                   +0                  -0          +0.0970807




 >>>>>>>>>>>>>>>>>>>>>>>>>>>>>>>>>>>>>>>>>>>>>>>>>>>>>>>>>>>>>>>>>>>>>>
 |                                                                    |
 | Reading pseudopotentials files:                                    |
 | The pseudopotential file is in UPF format. The 'NC' indicates that |
 | the type of pseudopotential is 'norm conserving'. Functional of    |
 | exchange and correlation is decided by 4 given parameters in UPF   |
 | file.  We also read in the 'core correction' if there exists.      |
 | Also we can read the valence electrons number and the maximal      |
 | angular momentum used in this pseudopotential. We also read in the |
 | trail wave function, trail atomic density and local-pseudopotential|
 | on logrithmic grid. The non-local pseudopotential projector is also|
 | read in if there is any.                                           |
 |                                                                    |
 <<<<<<<<<<<<<<<<<<<<<<<<<<<<<<<<<<<<<<<<<<<<<<<<<<<<<<<<<<<<<<<<<<<<<<




                PAO radial cut off (Bohr) = 16

 Read in pseudopotential file is li.gga.psp.1
                     pseudopotential type = 
          exchange-correlation functional = XC_GGA_X_PBE+XC_GGA_C_PBE
                 nonlocal core correction = 0
                        valence electrons = 1
                                     lmax = 0
                           number of zeta = 0
                     number of projectors = 0
                PAO radial cut off (Bohr) = 16

 Read in pseudopotential file is mg.gga.psp
                     pseudopotential type = 
          exchange-correlation functional = XC_GGA_X_PBE+XC_GGA_C_PBE
                 nonlocal core correction = 0
                        valence electrons = 2
                                     lmax = 0
                           number of zeta = 0
                     number of projectors = 0
Notice: symbol 'Li_locpsp' is not an element symbol!!!! set the covalent radius to be 0.
Notice: symbol 'mg_locpsp' is not an element symbol!!!! set the covalent radius to be 0.
     initial pseudo atomic orbital number = 0
                                   NLOCAL = 54




 >>>>>>>>>>>>>>>>>>>>>>>>>>>>>>>>>>>>>>>>>>>>>>>>>>>>>>>>>>>>>>>>>>>>>>
 |                                                                    |
 | Setup plane waves of charge/potential:                             |
 | Use the energy cutoff and the lattice vectors to generate the      |
 | dimensions of FFT grid. The number of FFT grid on each processor   |
 | is 'nrxx'. The number of plane wave basis in reciprocal space is   |
 | different for charege/potential and wave functions. We also set    |
 | the 'sticks' for the parallel of FFT. The number of plane waves    |
 | is 'npw' in each processor.                                        |
 <<<<<<<<<<<<<<<<<<<<<<<<<<<<<<<<<<<<<<<<<<<<<<<<<<<<<<<<<<<<<<<<<<<<<<





 SETUP THE PLANE WAVE BASIS
 energy cutoff for charge/potential (unit:Ry) = 235.196
          [fft grid for charge/potential] = 32, 32, 96
                      [fft grid division] = 1, 1, 1
      [big fft grid for charge/potential] = 32, 32, 96
                                     nbxx = 98304
                                     nrxx = 98304

 SETUP PLANE WAVES FOR CHARGE/POTENTIAL
                    number of plane waves = 98304
                         number of sticks = 1024

 PARALLEL PW FOR CHARGE/POTENTIAL
     PROC   COLUMNS(POT)             PW
        1           1024          98304
 --------------- sum -------------------
        1           1024          98304
                            number of |g| = 14161
                                  max |g| = 64.4981
                                  min |g| = 0

 SETUP THE ELECTRONS NUMBER
            electron number of element Li = 1
      total electron number of element Li = 2
            electron number of element Mg = 2
      total electron number of element Mg = 8
            AUTOSET number of electrons:  = 10
 DONE : SETUP UNITCELL Time : 0.961172 (SEC)





 >>>>>>>>>>>>>>>>>>>>>>>>>>>>>>>>>>>>>>>>>>>>>>>>>>>>>>>>>>>>>>>>>>>>>>
 |                                                                    |
 | Doing symmetry analysis:                                           |
 | We calculate the norm of 3 vectors and the angles between them,    |
 | the type of Bravais lattice is given. We can judge if the unticell |
 | is a primitive cell. Finally we give the point group operation for |
 | this unitcell. We we use the point group operations to do symmetry |
 | analysis on given k-point mesh and the charge density.             |
 |                                                                    |
 <<<<<<<<<<<<<<<<<<<<<<<<<<<<<<<<<<<<<<<<<<<<<<<<<<<<<<<<<<<<<<<<<<<<<<




 LATTICE VECTORS: (CARTESIAN COORDINATE: IN UNIT OF A0)
             +3.45383                  +0                  +0
                   +0            +3.46492                  +0
                   +0                  +0            +10.3007
                       right hand lattice = 1
                                   NORM_A = 3.45383
                                   NORM_B = 3.46492
                                   NORM_C = 10.3007
                           ALPHA (DEGREE) = 90
                           BETA  (DEGREE) = 90
                           GAMMA (DEGREE) = 90
                             BRAVAIS TYPE = 8
                     BRAVAIS LATTICE NAME = 08. Orthorhombic P(simple)
                                    IBRAV = 8
                                  BRAVAIS = SIMPLE ORTHORHOMBIC CELL
                       LATTICE CONSTANT A = 3.45383
                                B/A RATIO = 1.00321
                                C/A RATIO = 2.9824
                                    ibrav = 8
                        ROTATION MATRICES = 8
              PURE POINT GROUP OPERATIONS = 8
                   SPACE GROUP OPERATIONS = 8
                                       C2 = 3
                                       C3 = 0
                                       C4 = 0
                                       C6 = 0
                                       S1 = 3
                                       S3 = 0
                                       S4 = 0
                                       S6 = 0
                              POINT GROUP = D_2h
Warning : If the optimal symmetric configuration is not the input configuration, 
you have to manually change configurations, ABACUS would only calculate the input structure.
 DONE : SYMMETRY Time : 1.06217 (SEC)





 >>>>>>>>>>>>>>>>>>>>>>>>>>>>>>>>>>>>>>>>>>>>>>>>>>>>>>>>>>>>>>>>>>>>>>
 |                                                                    |
 | Setup K-points                                                     |
 | We setup the k-points according to input parameters.               |
 | The reduced k-points are set according to symmetry operations.     |
 | We treat the spin as another set of k-points.                      |
 |                                                                    |
 <<<<<<<<<<<<<<<<<<<<<<<<<<<<<<<<<<<<<<<<<<<<<<<<<<<<<<<<<<<<<<<<<<<<<<





 SETUP K-POINTS
                                    nspin = 1
                   Input type of k points = Monkhorst-Pack(Gamma)
                                   nkstot = 1
                               nkstot_ibz = 1
      IBZ             DirectX             DirectY             DirectZ              Weight    ibz2bz
        1                   0                   0                   0                   1         0
                               nkstot now = 1

  KPOINTS            DIRECT_X            DIRECT_Y            DIRECT_Z              WEIGHT
        1                   0                   0                   0                   1

           k-point number in this process = 1
       minimum distributed K point number = 1

  KPOINTS         CARTESIAN_X         CARTESIAN_Y         CARTESIAN_Z              WEIGHT
        1                   0                   0                   0                   2

  KPOINTS            DIRECT_X            DIRECT_Y            DIRECT_Z              WEIGHT
        1                   0                   0                   0                   2
 DONE : INIT K-POINTS Time : 1.06262 (SEC)

 DONE : INIT BASIS Time : 1.42674 (SEC)

 DONE : INIT PHI Time : 1.43803 (SEC)


 SETUP NONLOCAL PSEUDOPOTENTIALS IN PLANE WAVE BASIS
 Li non-local projectors:
 Mg non-local projectors:
      TOTAL NUMBER OF NONLOCAL PROJECTORS = 0

 nhm = 0, not allocate some matrix. DONE : LOCAL POTENTIAL Time : 6.34453 (SEC)


 Init Non-Local PseudoPotential table : 
 Init Non-Local-Pseudopotential done.
 DONE : NON-LOCAL POTENTIAL Time : 6.3447 (SEC)

Successful completion of Potential's registration : local
Successful completion of Potential's registration : hartree
Successful completion of Potential's registration : xc
                                 init_chg = atomic
 DONE : INIT POTENTIAL Time : 10.8716 (SEC)

 DONE : INIT OPTIMIZATION Time : 10.8729 (SEC)

 DONE : INIT KEDF Time : 10.881 (SEC)


 charge density convergence is achieved
 final etot is -112.711 eV



 ><><><><><><><><><><><><><><><><><><><><><><

    TOTAL-FORCE (eV/Angstrom)

 ><><><><><><><><><><><><><><><><><><><><><><

     atom              x              y              z
      Li1              0              0              0
      Li2              0              0              0
      Mg1              0              0    -0.35133355
      Mg2              0              0    +0.35133355
      Mg3              0              0    -0.35133355
      Mg4              0              0    +0.35133355


 ><><><><><><><><><><><><><><><><><><><><><><

 TOTAL-STRESS (KBAR)

 ><><><><><><><><><><><><><><><><><><><><><><

      +17.322362      -0.000000      +0.000000
       -0.000000     +17.249044      +0.000000
       +0.000000      +0.000000      +8.756987
 TOTAL-PRESSURE: +14.442797 KBAR


 --------------------------------------------
 !FINAL_ETOT_IS -112.7111693719874665 eV
 --------------------------------------------






  |CLASS_NAME---------|NAME---------------|TIME(Sec)-----|CALLS----|AVG------|PER%-------
                                      total     +184.09624        21     +8.77   +100.00%
                 Driver         driver_line     +184.00035         1   +184.00    +99.95%
               PW_Basis      setuptransform       +0.77754         1     +0.78     +0.42%
               PW_Basis  setup_struc_factor       +0.36381         1     +0.36     +0.20%
              ppcell_vl           init_vloc       +4.90344         1     +4.90     +2.66%
                 Charge          atomic_rho       +4.02448         1     +4.02     +2.19%
               PW_Basis          recip2real      +31.97932      1682     +0.02    +17.37%
               PW_Basis    gathers_scatterp       +6.79941      1682     +0.00     +3.69%
              Potential            init_pot       +0.47396         1     +0.47     +0.26%
              Potential  update_from_charge     +112.25717       186     +0.60    +60.98%
              Potential           cal_v_eff     +112.24191       186     +0.60    +60.97%
           H_Hartree_pw           v_hartree      +10.37583       186     +0.06     +5.64%
               PW_Basis          real2recip      +40.93557      2051     +0.02    +22.24%
               PW_Basis    gatherp_scatters       +5.24258      2051     +0.00     +2.85%
                  PotXC           cal_v_eff     +101.16279       186     +0.54    +54.95%
          XC_Functional                v_xc      +82.04732        93     +0.88    +44.57%
          XC_Functional          v_xc_libxc      +99.85469       186     +0.54    +54.24%
             ESolver_OF                 Run     +164.57061         1   +164.57    +89.39%
                KEDF_TF        tf_potential       +6.49519       185     +0.04     +3.53%
                KEDF_WT        wt_potential      +31.64433       185     +0.17    +17.19%
                KEDF_vW        vw_potential       +8.70850       185     +0.05     +4.73%
                 Forces       cal_force_loc       +0.27882         1     +0.28     +0.15%
                 Forces        cal_force_ew       +0.21370         1     +0.21     +0.12%
           OF_Stress_PW          cal_stress       +7.95973         1     +7.96     +4.32%
            Stress_Func          stress_ewa       +0.29425         1     +0.29     +0.16%
            Stress_Func          stress_gga       +0.61758         1     +0.62     +0.34%
            Stress_Func          stress_loc       +7.02015         1     +7.02     +3.81%
 ----------------------------------------------------------------------------------------

 CLASS_NAME---------|NAME---------------|MEMORY(MB)--------
                                         +10.5295
             PW_Basis           struc_fac        +3.0000
 ----------------------------------------------------------

 Start  Time  : Mon May 15 11:32:24 2023
 Finish Time  : Mon May 15 11:35:28 2023
 Total  Time  : 0 h 3 mins 4 secs 
