 *********************************************************
 *                                                       *
 *                  WELCOME TO ABACUS v3.0               *
 *                                                       *
 *            'Atomic-orbital Based Ab-initio            *
 *                  Computation at UStc'                 *
 *                                                       *
 *          Website: http://abacus.ustc.edu.cn/          *
 *                                                       *
 *********************************************************
 Fri Jan 12 15:38:41 2024
 MAKE THE DIR         : OUT.oftest/
Notice: symbol 'al_locpsp' is not an element symbol!!!! set the covalent radius to be 0.
Notice: symbol 'mg_locpsp' is not an element symbol!!!! set the covalent radius to be 0.
 UNIFORM GRID DIM     : 80 * 80 * 80
 UNIFORM GRID DIM(BIG): 80 * 80 * 80
func,idXC_GGA_X_PBE 101
func,idXC_GGA_C_PBE 130
 DONE(3.52535    SEC) : SETUP UNITCELL
 DONE(3.62462    SEC) : SYMMETRY
 DONE(3.68535    SEC) : INIT K-POINTS
 ---------------------------------------------------------
 Self-consistent calculations for electrons
 ---------------------------------------------------------
 SPIN    KPOINTS         PROCESSORS  
 1       504             1           
 ---------------------------------------------------------
 Use plane wave basis
 ---------------------------------------------------------
 ELEMENT NATOM       XC          
 Al      16          
 Mg      16          
 ---------------------------------------------------------
 Initial plane wave basis and FFT box
 ---------------------------------------------------------
 DONE(13.6562    SEC) : INIT BASIS
 DONE(13.6564    SEC) : INIT PHI
 DONE(14.2438    SEC) : LOCAL POTENTIAL
 DONE(14.2484    SEC) : NON-LOCAL POTENTIAL
 START CHARGE      : atomic
 DONE(18.4114    SEC) : INIT POTENTIAL
 DONE(18.4259    SEC) : INIT OPTIMIZATION
Default type: double
 DONE(18.4767    SEC) : INIT KEDF
======================== Running OFDFT ========================
Iter        Etot(Ha)          Theta      PotNorm     deltaE(Ha)
0     -4.446360099406e+01   2.000e-01   1.818e-01   -4.446e+01  
1     -4.539396161587e+01   1.101e-01   2.117e-01   -9.304e-01  
2     -4.585541698301e+01   5.646e-02   2.293e-01   -4.615e-01  
3     -4.798506226095e+01   1.041e-01   2.108e-01   -2.130e+00  
4     -4.798619189794e+01   2.363e-03   2.116e-01   -1.130e-03  
5     -4.920341405456e+01   7.139e-02   1.010e-01   -1.217e+00  
6     -4.939489681104e+01   2.256e-02   5.698e-02   -1.915e-01  
7     -4.942317507536e+01   6.230e-03   4.948e-03   -2.828e-02  
8     -4.942350770892e+01   7.084e-04   3.296e-03   -3.326e-04  
9     -4.942358004569e+01   2.103e-04   2.623e-03   -7.234e-05  
10    -4.942362101405e+01   2.015e-04   2.610e-03   -4.097e-05  
11    -4.942365989825e+01   1.654e-04   1.991e-03   -3.888e-05  
12    -4.942368889684e+01   1.618e-04   1.840e-03   -2.900e-05  
13    -4.942371766195e+01   1.503e-04   1.272e-03   -2.877e-05  
14    -4.942372815157e+01   5.730e-05   8.296e-04   -1.049e-05  
15    -4.942373342077e+01   4.430e-05   8.865e-04   -5.269e-06  
16    -4.942373830418e+01   3.847e-05   7.848e-04   -4.883e-06  
17    -4.942380484334e+01   8.079e-04   2.143e-03   -6.654e-05  
18    -4.942383015394e+01   8.667e-05   7.143e-04   -2.531e-05  
19    -4.942383343414e+01   4.389e-05   6.119e-04   -3.280e-06  
20    -4.942383981166e+01   1.634e-04   9.316e-04   -6.378e-06  
21    -4.942384346934e+01   7.877e-05   7.971e-04   -3.658e-06  
22    -4.942384436479e+01   2.537e-05   7.714e-04   -8.954e-07  
23    -4.942384630752e+01   8.259e-05   8.470e-04   -1.943e-06  
24    -4.942384793592e+01   2.593e-05   7.179e-04   -1.628e-06  
25    -4.942385078422e+01   3.549e-05   3.004e-04   -2.848e-06  
26    -4.942385118766e+01   9.341e-06   1.332e-04   -4.034e-07  
27    -4.942385136520e+01   9.849e-06   1.822e-04   -1.775e-07  
 ><><><><><><><><><><><><><><><><><><><><><><
 TOTAL-STRESS (KBAR):
 ><><><><><><><><><><><><><><><><><><><><><><
 5.614e+01      3.741e-03      -1.369e-01     
 3.741e-03      5.605e+01      1.343e-01      
 -1.369e-01     1.343e-01      5.768e+01      
 TOTAL-PRESSURE: 5.662e+01 KBAR

  |CLASS_NAME---------|NAME---------------|TIME(Sec)-----|CALLS----|AVG------|PER%-------
                       total               526.15         21        25        1e+02     %
   Driver              driver_line         526.1          1         5.3e+02   1e+02     %
   PW_Basis            setuptransform      2.6148         1         2.6       0.5       %
   mymath              heapsort            0.69649        27692     2.5e-05   0.13      %
   PW_Basis            setup_struc_factor  9.97           1         10        1.9       %
   ppcell_vl           init_vloc           0.58288        1         0.58      0.11      %
   Charge              atomic_rho          0.79872        1         0.8       0.15      %
   PW_Basis            recip2real          116.73         1921      0.061     22        %
   PW_Basis            gathers_scatterp    18.798         1921      0.0098    3.6       %
   Potential           init_pot            3.2331         1         3.2       0.61      %
   Potential           update_from_charge  415.55         273       1.5       79        %
   Potential           cal_fixed_v         0.21802        1         0.22      0.041     %
   PotLocal            cal_fixed_v         0.21468        1         0.21      0.041     %
   Potential           cal_v_eff           415.33         273       1.5       79        %
   H_Hartree_pw        v_hartree           40.611         273       0.15      7.7       %
   PW_Basis            real2recip          138.17         2462      0.056     26        %
   PW_Basis            gatherp_scatters    16.473         2462      0.0067    3.1       %
   PotXC               cal_v_eff           372.53         273       1.4       71        %
   XC_Functional       v_xc                244.79         137       1.8       47        %
   XC_Functional       v_xc_libxc          369.31         273       1.4       70        %
   ESolver_OF          Run                 487.92         1         4.9e+02   93        %
   KEDF_TF             tf_potential        22.242         272       0.082     4.2       %
   KEDF_vW             vw_potential        36.949         272       0.14      7         %
   Forces              cal_force_loc       6.076          1         6.1       1.2       %
   Forces              cal_force_ew        6.043          1         6         1.1       %
   OF_Stress_PW        cal_stress          7.475          1         7.5       1.4       %
   Stress_Func         stress_ewa          6.1637         1         6.2       1.2       %
   Stress_Func         stress_gga          0.68289        1         0.68      0.13      %
   Stress_Func         stress_loc          0.60368        1         0.6       0.11      %
 ----------------------------------------------------------------------------------------

 START  Time  : Fri Jan 12 15:38:41 2024
 FINISH Time  : Fri Jan 12 15:47:27 2024
 TOTAL  Time  : 5.3e+02
 SEE INFORMATION IN : OUT.oftest/
