 *********************************************************
 *                                                       *
 *                  WELCOME TO ABACUS v3.0               *
 *                                                       *
 *            'Atomic-orbital Based Ab-initio            *
 *                  Computation at UStc'                 *
 *                                                       *
 *          Website: http://abacus.ustc.edu.cn/          *
 *                                                       *
 *********************************************************
 Fri Jan 12 15:38:13 2024
 MAKE THE DIR         : OUT.oftest/
Notice: symbol 'al_locpsp' is not an element symbol!!!! set the covalent radius to be 0.
Notice: symbol 'mg_locpsp' is not an element symbol!!!! set the covalent radius to be 0.
 UNIFORM GRID DIM     : 80 * 80 * 80
 UNIFORM GRID DIM(BIG): 80 * 80 * 80
func,idXC_GGA_X_PBE 101
func,idXC_GGA_C_PBE 130
 DONE(3.59798    SEC) : SETUP UNITCELL
 DONE(3.71655    SEC) : SYMMETRY
 DONE(3.76196    SEC) : INIT K-POINTS
 ---------------------------------------------------------
 Self-consistent calculations for electrons
 ---------------------------------------------------------
 SPIN    KPOINTS         PROCESSORS  
 1       504             1           
 ---------------------------------------------------------
 Use plane wave basis
 ---------------------------------------------------------
 ELEMENT NATOM       XC          
 Al      16          
 Mg      16          
 ---------------------------------------------------------
 Initial plane wave basis and FFT box
 ---------------------------------------------------------
 DONE(13.65      SEC) : INIT BASIS
 DONE(13.6541    SEC) : INIT PHI
 DONE(14.229     SEC) : LOCAL POTENTIAL
 DONE(14.2333    SEC) : NON-LOCAL POTENTIAL
 START CHARGE      : atomic
 DONE(18.145     SEC) : INIT POTENTIAL
 DONE(18.1551    SEC) : INIT OPTIMIZATION
Default type: double
 DONE(18.2085    SEC) : INIT KEDF
======================== Running OFDFT ========================
Iter        Etot(Ha)          Theta      PotNorm     deltaE(Ha)
0     -4.395082387650e+01   2.000e-01   2.047e-01   -4.395e+01  
1     -4.592718964180e+01   1.650e-01   2.529e-01   -1.976e+00  
2     -4.762735806507e+01   1.198e-01   2.507e-01   -1.700e+00  
3     -4.880568643210e+01   7.650e-02   1.701e-01   -1.178e+00  
4     -4.904740064756e+01   5.398e-02   1.279e-01   -2.417e-01  
5     -4.940972444959e+01   4.086e-02   1.687e-02   -3.623e-01  
6     -4.941286803815e+01   2.071e-03   4.942e-03   -3.144e-03  
7     -4.941307193533e+01   6.144e-04   4.056e-03   -2.039e-04  
8     -4.941318156019e+01   2.174e-04   1.162e-03   -1.096e-04  
9     -4.941319184879e+01   6.070e-05   9.148e-04   -1.029e-05  
10    -4.941319830372e+01   4.836e-05   9.340e-04   -6.455e-06  
11    -4.941325978526e+01   7.392e-04   2.074e-03   -6.148e-05  
12    -4.941327119786e+01   6.950e-05   1.917e-03   -1.141e-05  
13    -4.941327663640e+01   4.706e-05   1.847e-03   -5.439e-06  
14    -4.941327977541e+01   3.530e-05   1.829e-03   -3.139e-06  
15    -4.941329206253e+01   4.716e-05   3.500e-04   -1.229e-05  
16    -4.941329629161e+01   1.083e-04   6.634e-04   -4.229e-06  
17    -4.941329948467e+01   4.019e-05   3.706e-04   -3.193e-06  
18    -4.941330091889e+01   3.778e-05   4.152e-04   -1.434e-06  
19    -4.941330235668e+01   3.513e-05   4.159e-04   -1.438e-06  
20    -4.941330379472e+01   4.365e-05   4.516e-04   -1.438e-06  
21    -4.941330477771e+01   1.899e-05   2.467e-04   -9.830e-07  
22    -4.941330513079e+01   9.922e-06   1.956e-04   -3.531e-07  
23    -4.941330542919e+01   1.045e-05   2.113e-04   -2.984e-07  
 ><><><><><><><><><><><><><><><><><><><><><><
 TOTAL-STRESS (KBAR):
 ><><><><><><><><><><><><><><><><><><><><><><
 5.541e+01      -1.355e-01     -4.037e-01     
 -1.355e-01     5.576e+01      -1.368e-01     
 -4.037e-01     -1.368e-01     5.518e+01      
 TOTAL-PRESSURE: 5.545e+01 KBAR

  |CLASS_NAME---------|NAME---------------|TIME(Sec)-----|CALLS----|AVG------|PER%-------
                       total               508.03         21        24        1e+02     %
   Driver              driver_line         507.96         1         5.1e+02   1e+02     %
   PW_Basis            setuptransform      2.554          1         2.6       0.5       %
   mymath              heapsort            0.81315        29602     2.7e-05   0.16      %
   PW_Basis            setup_struc_factor  9.885          1         9.9       1.9       %
   ppcell_vl           init_vloc           0.56932        1         0.57      0.11      %
   Charge              atomic_rho          0.7564         1         0.76      0.15      %
   PW_Basis            recip2real          117.59         1613      0.073     23        %
   PW_Basis            gathers_scatterp    19.229         1613      0.012     3.8       %
   Potential           init_pot            3.0516         1         3.1       0.6       %
   Potential           update_from_charge  398.37         229       1.7       78        %
   Potential           cal_fixed_v         0.18564        1         0.19      0.037     %
   PotLocal            cal_fixed_v         0.18108        1         0.18      0.036     %
   Potential           cal_v_eff           398.18         229       1.7       78        %
   H_Hartree_pw        v_hartree           40.208         229       0.18      7.9       %
   PW_Basis            real2recip          130.86         2066      0.063     26        %
   PW_Basis            gatherp_scatters    16.288         2066      0.0079    3.2       %
   PotXC               cal_v_eff           355.74         229       1.6       70        %
   XC_Functional       v_xc                233.95         115       2         46        %
   XC_Functional       v_xc_libxc          352.49         229       1.5       69        %
   ESolver_OF          Run                 467.41         1         4.7e+02   92        %
   KEDF_TF             tf_potential        19.351         228       0.085     3.8       %
   KEDF_vW             vw_potential        36.407         228       0.16      7.2       %
   Forces              cal_force_loc       6.9467         1         6.9       1.4       %
   Forces              cal_force_ew        6.8296         1         6.8       1.3       %
   OF_Stress_PW        cal_stress          8.388          1         8.4       1.7       %
   Stress_Func         stress_ewa          6.8845         1         6.9       1.4       %
   Stress_Func         stress_gga          0.78863        1         0.79      0.16      %
   Stress_Func         stress_loc          0.67765        1         0.68      0.13      %
 ----------------------------------------------------------------------------------------

 START  Time  : Fri Jan 12 15:38:13 2024
 FINISH Time  : Fri Jan 12 15:46:41 2024
 TOTAL  Time  : 5.1e+02
 SEE INFORMATION IN : OUT.oftest/
