 *********************************************************
 *                                                       *
 *                  WELCOME TO ABACUS v3.0               *
 *                                                       *
 *            'Atomic-orbital Based Ab-initio            *
 *                  Computation at UStc'                 *
 *                                                       *
 *          Website: http://abacus.ustc.edu.cn/          *
 *                                                       *
 *********************************************************
 Wed May  3 01:05:26 2023
 MAKE THE DIR         : OUT.oftest/
Notice: symbol 'mg_locpsp' is not an element symbol!!!! set the covalent radius to be 0.
 UNIFORM GRID DIM     : 36 * 36 * 36
 UNIFORM GRID DIM(BIG): 36 * 36 * 36
func,idXC_GGA_X_PBE 101
func,idXC_GGA_C_PBE 130
 DONE(0.243964   SEC) : SETUP UNITCELL
 DONE(0.29731    SEC) : SYMMETRY
 DONE(0.297516   SEC) : INIT K-POINTS
 ---------------------------------------------------------
 Self-consistent calculations for electrons
 ---------------------------------------------------------
 SPIN    KPOINTS         PROCESSORS  
 1       1               1           
 ---------------------------------------------------------
 Use plane wave basis
 ---------------------------------------------------------
 ELEMENT NATOM       XC          
 Mg      1           
 ---------------------------------------------------------
 Initial plane wave basis and FFT box
 ---------------------------------------------------------
 DONE(0.299879   SEC) : INIT BASIS
 DONE(0.299907   SEC) : INIT PHI
 DONE(0.375675   SEC) : LOCAL POTENTIAL
 DONE(0.375709   SEC) : NON-LOCAL POTENTIAL
 START CHARGE      : atomic
 DONE(0.55044    SEC) : INIT POTENTIAL
 DONE(0.550715   SEC) : INIT OPTIMIZATION
Default type: double
nnode = 10
nlayer = 3
feg_net_F = 0.540933
 DONE(0.608795   SEC) : INIT KEDF
======================== Running OFDFT ========================
Iter        Etot(Ha)          Theta      PotNorm     deltaE(Ha)
0     -8.442933872413e-01   2.000e-01   1.134e-01   -8.443e-01  
1     -8.885990267449e-01   1.024e-01   8.274e-02   -4.431e-02  
2     -8.898538909290e-01   1.240e-02   1.288e-02   -1.255e-03  
3     -8.898885204354e-01   2.160e-03   5.250e-03   -3.463e-05  
4     -8.899013103215e-01   2.360e-03   4.413e-04   -1.279e-05  
5     -8.899013780643e-01   1.166e-04   2.999e-04   -6.774e-08  
6     -8.899013941168e-01   3.277e-05   1.864e-04   -1.605e-08  

  |CLASS_NAME---------|NAME---------------|TIME(Sec)-----|CALLS----|AVG------|PER%-------
                       total               363.34         21        17        1e+02     %
   Driver              driver_line         363.33         1         3.6e+02   1e+02     %
   PW_Basis            setuptransform      0.21447        1         0.21      0.059     %
   PW_Basis            recip2real          7.2356         3408      0.0021    2         %
   PW_Basis            gathers_scatterp    0.59968        3408      0.00018   0.17      %
   Potential           update_from_charge  10.794         171       0.063     3         %
   Potential           cal_v_eff           10.79          171       0.063     3         %
   H_Hartree_pw        v_hartree           0.85356        171       0.005     0.23      %
   PW_Basis            real2recip          7.3754         3408      0.0022    2         %
   PW_Basis            gatherp_scatters    0.38501        3408      0.00011   0.11      %
   PotXC               cal_v_eff           9.9064         171       0.058     2.7       %
   XC_Functional       v_xc                179.51         86        2.1       49        %
   XC_Functional       v_xc_libxc          9.8876         171       0.058     2.7       %
   ESolver_OF          Run                 362.73         1         3.6e+02   1e+02     %
   KEDF_vW             vw_potential        0.83123        170       0.0049    0.23      %
 ----------------------------------------------------------------------------------------

 START  Time  : Wed May  3 01:05:26 2023
 FINISH Time  : Wed May  3 01:11:29 2023
 TOTAL  Time  : 3.6e+02
 SEE INFORMATION IN : OUT.oftest/
