 *********************************************************
 *                                                       *
 *                  WELCOME TO ABACUS v3.0               *
 *                                                       *
 *            'Atomic-orbital Based Ab-initio            *
 *                  Computation at UStc'                 *
 *                                                       *
 *          Website: http://abacus.ustc.edu.cn/          *
 *                                                       *
 *********************************************************
 Mon Apr 17 14:55:13 2023
 MAKE THE DIR         : OUT.blpstest/
Notice: symbol 'Li_locpsp' is not an element symbol!!!! set the covalent radius to be 0.
 UNIFORM GRID DIM     : 25 * 25 * 25
 UNIFORM GRID DIM(BIG): 25 * 25 * 25
func,idXC_GGA_X_PBE 101
func,idXC_GGA_C_PBE 130
 DONE(0.163002   SEC) : SETUP UNITCELL
 DONE(0.216871   SEC) : SYMMETRY
 DONE(0.554635   SEC) : INIT K-POINTS
 ---------------------------------------------------------
 Self-consistent calculations for electrons
 ---------------------------------------------------------
 SPIN    KPOINTS         PROCESSORS  
 1       286             1           
 ---------------------------------------------------------
 Use plane wave basis
 ---------------------------------------------------------
 ELEMENT NATOM       XC          
 Li      1           
 ---------------------------------------------------------
 Initial plane wave basis and FFT box
 ---------------------------------------------------------
 DONE(0.555414   SEC) : INIT BASIS
 DONE(0.555442   SEC) : INIT PHI
 DONE(0.577827   SEC) : LOCAL POTENTIAL
 DONE(0.577862   SEC) : NON-LOCAL POTENTIAL
 START CHARGE      : atomic
 DONE(0.62328    SEC) : INIT POTENTIAL
 DONE(0.623326   SEC) : INIT OPTIMIZATION
 DONE(0.624007   SEC) : INIT KEDF
======================== Running OFDFT ========================
Iter        Etot(Ha)          Theta      PotNorm     deltaE(Ha)
0     -2.622009392780e-01   2.000e-01   7.327e-02   -2.622e-01  
1     -2.720524625047e-01   7.145e-02   1.813e-02   -9.852e-03  
2     -2.721983934571e-01   8.565e-03   5.145e-03   -1.459e-04  
3     -2.722116338362e-01   3.701e-03   4.078e-04   -1.324e-05  
4     -2.722117477993e-01   2.346e-04   4.221e-05   -1.140e-07  
5     -2.722117492076e-01   3.112e-05   2.703e-05   -1.408e-09  

  |CLASS_NAME---------|NAME---------------|TIME(Sec)-----|CALLS----|AVG------|PER%-------
                       total               5.9176         21        0.28      1e+02     %
   Driver              driver_line         5.8734         1         5.9       99        %
   PW_Basis            setuptransform      0.11141        1         0.11      1.9       %
   PW_Basis            recip2real          0.7612         1196      0.00064   13        %
   Potential           update_from_charge  3.0703         133       0.023     52        %
   Potential           cal_v_eff           3.0689         133       0.023     52        %
   H_Hartree_pw        v_hartree           0.2262         133       0.0017    3.8       %
   PW_Basis            real2recip          0.98866        1460      0.00068   17        %
   PotXC               cal_v_eff           2.8241         133       0.021     48        %
   XC_Functional       v_xc                2.6346         67        0.039     45        %
   XC_Functional       v_xc_libxc          2.8112         133       0.021     48        %
   ESolver_OF          Run                 5.2932         1         5.3       89        %
   KEDF_TF             tf_potential        0.42085        132       0.0032    7.1       %
   KEDF_WT             wt_potential        1.4541         132       0.011     25        %
   KEDF_vW             vw_potential        0.2284         132       0.0017    3.9       %
 ----------------------------------------------------------------------------------------

 START  Time  : Mon Apr 17 14:55:13 2023
 FINISH Time  : Mon Apr 17 14:55:19 2023
 TOTAL  Time  : 6
 SEE INFORMATION IN : OUT.blpstest/
