 *********************************************************
 *                                                       *
 *                  WELCOME TO ABACUS v3.0               *
 *                                                       *
 *            'Atomic-orbital Based Ab-initio            *
 *                  Computation at UStc'                 *
 *                                                       *
 *          Website: http://abacus.ustc.edu.cn/          *
 *                                                       *
 *********************************************************
 Wed Apr 26 05:32:37 2023
 MAKE THE DIR         : OUT.oftest/
Notice: symbol 'mg_locpsp' is not an element symbol!!!! set the covalent radius to be 0.
 UNIFORM GRID DIM     : 27 * 27 * 27
 UNIFORM GRID DIM(BIG): 27 * 27 * 27
func,idXC_GGA_X_PBE 101
func,idXC_GGA_C_PBE 130
 DONE(0.117299   SEC) : SETUP UNITCELL
 DONE(0.1719     SEC) : SYMMETRY
 DONE(0.172154   SEC) : INIT K-POINTS
 ---------------------------------------------------------
 Self-consistent calculations for electrons
 ---------------------------------------------------------
 SPIN    KPOINTS         PROCESSORS  
 1       1               1           
 ---------------------------------------------------------
 Use plane wave basis
 ---------------------------------------------------------
 ELEMENT NATOM       XC          
 Mg      1           
 ---------------------------------------------------------
 Initial plane wave basis and FFT box
 ---------------------------------------------------------
 DONE(0.17336    SEC) : INIT BASIS
 DONE(0.173388   SEC) : INIT PHI
 DONE(0.212087   SEC) : LOCAL POTENTIAL
 DONE(0.212127   SEC) : NON-LOCAL POTENTIAL
 START CHARGE      : atomic
 DONE(0.288542   SEC) : INIT POTENTIAL
 DONE(0.288612   SEC) : INIT OPTIMIZATION
Default type: double
nnode = 10
nlayer = 3
feg_net_F = 0.540933
 DONE(0.340115   SEC) : INIT KEDF
======================== Running OFDFT ========================
Iter        Etot(Ha)          Theta      PotNorm     deltaE(Ha)
0     -7.934454813875e-01   2.000e-01   1.693e-01   -7.934e-01  
1     -7.972132582563e-01   2.833e-02   2.170e-01   -3.768e-03  
2     -8.666918736701e-01   1.137e-01   1.506e-01   -6.948e-02  
3     -8.700981003341e-01   1.635e-02   8.215e-02   -3.406e-03  
4     -8.726433118459e-01   2.987e-02   9.908e-03   -2.545e-03  
5     -8.726574980118e-01   7.060e-04   8.862e-03   -1.419e-05  
6     -8.726754214285e-01   1.979e-03   4.069e-03   -1.792e-05  
7     -8.726807994572e-01   1.525e-03   3.005e-04   -5.378e-06  
8     -8.726808169625e-01   4.282e-05   5.214e-05   -1.751e-08  
9     -8.726808172750e-01   4.150e-06   2.171e-05   -3.125e-10  

  |CLASS_NAME---------|NAME---------------|TIME(Sec)-----|CALLS----|AVG------|PER%-------
                       total               203.65         21        9.7       1e+02     %
   Driver              driver_line         203.64         1         2e+02     1e+02     %
   PW_Basis            recip2real          4.7527         4728      0.001     2.3       %
   PW_Basis            gathers_scatterp    0.33275        4728      7e-05     0.16      %
   Potential           update_from_charge  6.5019         237       0.027     3.2       %
   Potential           cal_v_eff           6.4998         237       0.027     3.2       %
   H_Hartree_pw        v_hartree           0.54044        237       0.0023    0.27      %
   PW_Basis            real2recip          4.5394         4728      0.00096   2.2       %
   PW_Basis            gatherp_scatters    0.19109        4728      4e-05     0.094     %
   PotXC               cal_v_eff           5.94           237       0.025     2.9       %
   XC_Functional       v_xc                100.91         119       0.85      50        %
   XC_Functional       v_xc_libxc          5.93           237       0.025     2.9       %
   ESolver_OF          Run                 203.31         1         2e+02     1e+02     %
   KEDF_vW             vw_potential        0.52917        236       0.0022    0.26      %
 ----------------------------------------------------------------------------------------

 START  Time  : Wed Apr 26 05:32:37 2023
 FINISH Time  : Wed Apr 26 05:36:01 2023
 TOTAL  Time  : 2e+02
 SEE INFORMATION IN : OUT.oftest/
