 *********************************************************
 *                                                       *
 *                  WELCOME TO ABACUS v3.0               *
 *                                                       *
 *            'Atomic-orbital Based Ab-initio            *
 *                  Computation at UStc'                 *
 *                                                       *
 *          Website: http://abacus.ustc.edu.cn/          *
 *                                                       *
 *********************************************************
 Mon Apr 17 14:53:45 2023
 MAKE THE DIR         : OUT.blpstest/
Notice: symbol 'Li_locpsp' is not an element symbol!!!! set the covalent radius to be 0.
 UNIFORM GRID DIM     : 27 * 27 * 27
 UNIFORM GRID DIM(BIG): 27 * 27 * 27
func,idXC_GGA_X_PBE 101
func,idXC_GGA_C_PBE 130
 DONE(0.098347   SEC) : SETUP UNITCELL
 DONE(0.154179   SEC) : SYMMETRY
 DONE(0.492465   SEC) : INIT K-POINTS
 ---------------------------------------------------------
 Self-consistent calculations for electrons
 ---------------------------------------------------------
 SPIN    KPOINTS         PROCESSORS  
 1       256             1           
 ---------------------------------------------------------
 Use plane wave basis
 ---------------------------------------------------------
 ELEMENT NATOM       XC          
 Li      1           
 ---------------------------------------------------------
 Initial plane wave basis and FFT box
 ---------------------------------------------------------
 DONE(0.493423   SEC) : INIT BASIS
 DONE(0.493447   SEC) : INIT PHI
 DONE(0.533539   SEC) : LOCAL POTENTIAL
 DONE(0.53357    SEC) : NON-LOCAL POTENTIAL
 START CHARGE      : atomic
 DONE(0.604747   SEC) : INIT POTENTIAL
 DONE(0.604805   SEC) : INIT OPTIMIZATION
 DONE(0.605679   SEC) : INIT KEDF
======================== Running OFDFT ========================
Iter        Etot(Ha)          Theta      PotNorm     deltaE(Ha)
0     -2.651965437268e-01   2.000e-01   8.304e-02   -2.652e-01  
1     -2.759210028323e-01   6.650e-02   6.014e-02   -1.072e-02  
2     -2.765289131251e-01   1.037e-02   3.687e-02   -6.079e-04  
3     -2.769195534543e-01   1.768e-02   5.713e-03   -3.906e-04  
4     -2.769243864814e-01   1.086e-03   5.585e-04   -4.833e-06  
5     -2.769244397159e-01   1.083e-04   4.010e-04   -5.323e-08  
6     -2.769244616434e-01   4.965e-05   2.211e-04   -2.193e-08  

  |CLASS_NAME---------|NAME---------------|TIME(Sec)-----|CALLS----|AVG------|PER%-------
                       total               8.9951         21        0.43      1e+02     %
   Driver              driver_line         8.985          1         9         1e+02     %
   PW_Basis            recip2real          1.4755         1295      0.0011    16        %
   PW_Basis            gathers_scatterp    0.11128        1295      8.6e-05   1.2       %
   Potential           update_from_charge  5.0851         144       0.035     57        %
   Potential           cal_v_eff           5.0835         144       0.035     57        %
   H_Hartree_pw        v_hartree           0.40772        144       0.0028    4.5       %
   PW_Basis            real2recip          1.9116         1581      0.0012    21        %
   PW_Basis            gatherp_scatters    0.14089        1581      8.9e-05   1.6       %
   PotXC               cal_v_eff           4.6499         144       0.032     52        %
   XC_Functional       v_xc                4.1938         72        0.058     47        %
   XC_Functional       v_xc_libxc          4.6341         144       0.032     52        %
   ESolver_OF          Run                 8.3884         1         8.4       93        %
   KEDF_TF             tf_potential        0.57624        143       0.004     6.4       %
   KEDF_WT             wt_potential        2.1697         143       0.015     24        %
   KEDF_vW             vw_potential        0.4026         143       0.0028    4.5       %
 ----------------------------------------------------------------------------------------

 START  Time  : Mon Apr 17 14:53:45 2023
 FINISH Time  : Mon Apr 17 14:53:54 2023
 TOTAL  Time  : 9
 SEE INFORMATION IN : OUT.blpstest/
