 *********************************************************
 *                                                       *
 *                  WELCOME TO ABACUS v3.0               *
 *                                                       *
 *            'Atomic-orbital Based Ab-initio            *
 *                  Computation at UStc'                 *
 *                                                       *
 *          Website: http://abacus.ustc.edu.cn/          *
 *                                                       *
 *********************************************************
 Mon Mar  6 13:58:28 2023
 MAKE THE DIR         : OUT.blpstest/
Notice: symbol 'Li_locpsp' is not an element symbol!!!! set the covalent radius to be 0.
Notice: symbol 'mg_locpsp' is not an element symbol!!!! set the covalent radius to be 0.
 UNIFORM GRID DIM     : 60 * 60 * 60
 UNIFORM GRID DIM(BIG): 60 * 60 * 60
func,idXC_GGA_X_PBE 101
func,idXC_GGA_C_PBE 130
 DONE(0.951293   SEC) : SETUP UNITCELL
 DONE(1.01583    SEC) : SYMMETRY
 DONE(1.04573    SEC) : INIT K-POINTS
 ---------------------------------------------------------
 Self-consistent calculations for electrons
 ---------------------------------------------------------
 SPIN    KPOINTS         PROCESSORS  
 1       84              1           
 ---------------------------------------------------------
 Use plane wave basis
 ---------------------------------------------------------
 ELEMENT NATOM       XC          
 Li      12          
 Mg      4           
 ---------------------------------------------------------
 Initial plane wave basis and FFT box
 ---------------------------------------------------------
 DONE(1.33993    SEC) : INIT PLANEWAVE
 MEMORY FOR PSI (MB)  : 476.027
 DONE(2.50054    SEC) : LOCAL POTENTIAL
 DONE(2.50071    SEC) : NON-LOCAL POTENTIAL
 DONE(2.501      SEC) : INIT BASIS
 START CHARGE      : atomic
 DONE(3.75233    SEC) : INIT SCF
 ITER   ETOT(eV)       EDIFF(eV)      DRHO       TIME(s)    
 CG1    -1.856893e+02  0.000000e+00   5.054e-01  1.359e+03  
 CG2    -1.889695e+02  -3.280214e+00  3.015e-02  5.148e+02  
 CG3    -1.890765e+02  -1.070304e-01  1.687e-03  7.417e+02  
 CG4    -1.890745e+02  1.996811e-03   4.531e-03  6.903e+02  
 CG5    -1.890870e+02  -1.247445e-02  1.503e-04  4.320e+02  
 CG6    -1.890874e+02  -3.540059e-04  8.526e-07  2.849e+02  
 CG7    -1.890874e+02  -1.727802e-05  1.236e-07  4.118e+02  
 CG8    -1.890874e+02  -1.562184e-07  7.228e-09  2.068e+02  
 CG9    -1.890874e+02  -3.806952e-08  8.879e-10  2.788e+02  

  |CLASS_NAME---------|NAME---------------|TIME(Sec)-----|CALLS----|AVG------|PER%-------
                       total               4923.5         17        2.9e+02   1e+02     %
   Driver              driver_line         4923.4         1         4.9e+03   1e+02     %
   PW_Basis            setuptransform      0.89232        1         0.89      0.018     %
   PW_Basis_K          setuptransform      0.20239        1         0.2       0.0041    %
   PW_Basis            setup_struc_factor  1.0077         1         1         0.02      %
   ppcell_vl           init_vloc           0.13104        1         0.13      0.0027    %
   ESolver_KS_PW       Run                 4920.9         1         4.9e+03   1e+02     %
   Charge              atomic_rho          0.18117        1         0.18      0.0037    %
   PW_Basis            recip2real          1.6278         62        0.026     0.033     %
   PW_Basis            gathers_scatterp    0.2699         62        0.0044    0.0055    %
   Potential           init_pot            0.95765        1         0.96      0.019     %
   Potential           update_from_charge  6.7293         10        0.67      0.14      %
   Potential           cal_v_eff           6.6854         10        0.67      0.14      %
   H_Hartree_pw        v_hartree           0.63702        10        0.064     0.013     %
   PW_Basis            real2recip          2.3213         98        0.024     0.047     %
   PW_Basis            gatherp_scatters    0.26927        98        0.0027    0.0055    %
   PotXC               cal_v_eff           6.0038         10        0.6       0.12      %
   XC_Functional       v_xc                3223.4         5         6.4e+02   65        %
   XC_Functional       v_xc_libxc          5.952          10        0.6       0.12      %
   Symmetry            rho_symmetry        0.44555        10        0.045     0.009     %
   HSolverPW           solve               4912           9         5.5e+02   1e+02     %
   WF_atomic           atomic_wfc          0.96705        84        0.012     0.02      %
   WF_igk              get_sk              0.84998        1344      0.00063   0.017     %
   DiagoIterAssist     diagH_subspace      800.89         756       1.1       16        %
   OperatorPW          hPsi                4070.6         89830     0.045     83        %
   Operator            EkineticPW          19.64          89830     0.00022   0.4       %
   Operator            VeffPW              4044.6         89830     0.045     82        %
   PW_Basis_K          recip2real          2066.6         118996    0.017     42        %
   PW_Basis_K          gathers_scatterp    298.6          118996    0.0025    6.1       %
   PW_Basis_K          real2recip          1752.3         110242    0.016     36        %
   PW_Basis_K          gatherp_scatters    97.398         110242    0.00088   2         %
   Operator            NonlocalPW          0.27253        89830     3e-06     0.0055    %
   DiagoIterAssist     LAPACK_subspace     0.53375        756       0.00071   0.011     %
   DiagoCG             diag_once           3931.8         756       5.2       80        %
   ElecStatePW         psiToRho            168.45         9         19        3.4       %
   Charge              mix_rho             0.90808        8         0.11      0.018     %
 ----------------------------------------------------------------------------------------

 START  Time  : Mon Mar  6 13:58:28 2023
 FINISH Time  : Mon Mar  6 15:20:31 2023
 TOTAL  Time  : 4.9e+03
 SEE INFORMATION IN : OUT.blpstest/
