 *********************************************************
 *                                                       *
 *                  WELCOME TO ABACUS v3.0               *
 *                                                       *
 *            'Atomic-orbital Based Ab-initio            *
 *                  Computation at UStc'                 *
 *                                                       *
 *          Website: http://abacus.ustc.edu.cn/          *
 *                                                       *
 *********************************************************
 Wed Apr 26 00:09:05 2023
 MAKE THE DIR         : OUT.oftest/
Notice: symbol 'al_locpsp' is not an element symbol!!!! set the covalent radius to be 0.
 UNIFORM GRID DIM     : 27 * 27 * 27
 UNIFORM GRID DIM(BIG): 27 * 27 * 27
func,idXC_GGA_X_PBE 101
func,idXC_GGA_C_PBE 130
 DONE(0.106653   SEC) : SETUP UNITCELL
 DONE(0.164451   SEC) : SYMMETRY
 DONE(0.164741   SEC) : INIT K-POINTS
 ---------------------------------------------------------
 Self-consistent calculations for electrons
 ---------------------------------------------------------
 SPIN    KPOINTS         PROCESSORS  
 1       1               1           
 ---------------------------------------------------------
 Use plane wave basis
 ---------------------------------------------------------
 ELEMENT NATOM       XC          
 Al      1           
 ---------------------------------------------------------
 Initial plane wave basis and FFT box
 ---------------------------------------------------------
 DONE(0.165859   SEC) : INIT BASIS
 DONE(0.16589    SEC) : INIT PHI
 DONE(0.19301    SEC) : LOCAL POTENTIAL
 DONE(0.193053   SEC) : NON-LOCAL POTENTIAL
 START CHARGE      : atomic
 DONE(0.255882   SEC) : INIT POTENTIAL
 DONE(0.255959   SEC) : INIT OPTIMIZATION
Default type: double
nnode = 10
nlayer = 3
feg_net_F = 0.540933
 DONE(0.341009   SEC) : INIT KEDF
======================== Running OFDFT ========================
Iter        Etot(Ha)          Theta      PotNorm     deltaE(Ha)
0     -1.960030525291e+00   2.000e-01   1.524e-01   -1.960e+00  
1     -1.964648037008e+00   3.040e-02   1.780e-01   -4.618e-03  
2     -2.059100672729e+00   1.128e-01   1.725e-01   -9.445e-02  
3     -2.084153184520e+00   9.493e-02   3.749e-02   -2.505e-02  
4     -2.084566566834e+00   6.168e-03   3.222e-03   -4.134e-04  
5     -2.084579655124e+00   2.006e-03   1.419e-03   -1.309e-05  
6     -2.084580836015e+00   4.745e-04   1.099e-04   -1.181e-06  
7     -2.084580842705e+00   2.785e-05   1.266e-05   -6.690e-09  
8     -2.084580842868e+00   7.110e-06   4.025e-06   -1.630e-10  

  |CLASS_NAME---------|NAME---------------|TIME(Sec)-----|CALLS----|AVG------|PER%-------
                       total               95.987         21        4.6       1e+02     %
   Driver              driver_line         95.98          1         96        1e+02     %
   PW_Basis            recip2real          2.1788         4148      0.00053   2.3       %
   PW_Basis            gathers_scatterp    0.17846        4148      4.3e-05   0.19      %
   Potential           update_from_charge  3.563          208       0.017     3.7       %
   Potential           cal_v_eff           3.5608         208       0.017     3.7       %
   H_Hartree_pw        v_hartree           0.26279        208       0.0013    0.27      %
   PW_Basis            real2recip          2.1968         4148      0.00053   2.3       %
   PW_Basis            gatherp_scatters    0.11337        4148      2.7e-05   0.12      %
   PotXC               cal_v_eff           3.287          208       0.016     3.4       %
   XC_Functional       v_xc                47.642         104       0.46      50        %
   XC_Functional       v_xc_libxc          3.2807         208       0.016     3.4       %
   ESolver_OF          Run                 95.646         1         96        1e+02     %
   KEDF_vW             vw_potential        0.25469        207       0.0012    0.27      %
 ----------------------------------------------------------------------------------------

 START  Time  : Wed Apr 26 00:09:05 2023
 FINISH Time  : Wed Apr 26 00:10:41 2023
 TOTAL  Time  : 96
 SEE INFORMATION IN : OUT.oftest/
