                                                                                     
                             WELCOME TO ABACUS v3.0                                  
                                                                                     
               'Atomic-orbital Based Ab-initio Computation at UStc'                  
                                                                                     
                     Website: http://abacus.ustc.edu.cn/                             
                                                                                     
    Version: Parallel, in development
    Processor Number is 16
    Start Time is Mon May 15 23:48:44 2023
                                                                                     
 ------------------------------------------------------------------------------------

 READING GENERAL INFORMATION
                           global_out_dir = OUT.oftest/
                           global_in_card = INPUT
                               pseudo_dir = 
                              orbital_dir = 
                                    DRANK = 1
                                    DSIZE = 16
                                   DCOLOR = 1
                                    GRANK = 1
                                    GSIZE = 1
 The esolver type has been set to : ofdft




 >>>>>>>>>>>>>>>>>>>>>>>>>>>>>>>>>>>>>>>>>>>>>>>>>>>>>>>>>>>>>>>>>>>>>>
 |                                                                    |
 | Reading atom information in unitcell:                              |
 | From the input file and the structure file we know the number of   |
 | different elments in this unitcell, then we list the detail        |
 | information for each element, especially the zeta and polar atomic |
 | orbital number for each element. The total atom number is counted. |
 | We calculate the nearest atom distance for each atom and show the  |
 | Cartesian and Direct coordinates for each atom. We list the file   |
 | address for atomic orbitals. The volume and the lattice vectors    |
 | in real and reciprocal space is also shown.                        |
 |                                                                    |
 <<<<<<<<<<<<<<<<<<<<<<<<<<<<<<<<<<<<<<<<<<<<<<<<<<<<<<<<<<<<<<<<<<<<<<




 READING UNITCELL INFORMATION
                                    ntype = 3
                 atom label for species 1 = Li
                 atom label for species 2 = Mg
                 atom label for species 3 = Al
                  lattice constant (Bohr) = 1.88973
              lattice constant (Angstrom) = 1

 READING ATOM TYPE 1
                               atom label = Li
                      L=0, number of zeta = 1
                      L=1, number of zeta = 1
                      L=2, number of zeta = 1
             number of atom for this type = 2
                      start magnetization = FALSE
                      start magnetization = FALSE

 READING ATOM TYPE 2
                               atom label = Mg
                      L=0, number of zeta = 1
                      L=1, number of zeta = 1
                      L=2, number of zeta = 1
             number of atom for this type = 32
                      start magnetization = FALSE
                      start magnetization = FALSE
                      start magnetization = FALSE
                      start magnetization = FALSE
                      start magnetization = FALSE
                      start magnetization = FALSE
                      start magnetization = FALSE
                      start magnetization = FALSE
                      start magnetization = FALSE
                      start magnetization = FALSE
                      start magnetization = FALSE
                      start magnetization = FALSE
                      start magnetization = FALSE
                      start magnetization = FALSE
                      start magnetization = FALSE
                      start magnetization = FALSE
                      start magnetization = FALSE
                      start magnetization = FALSE
                      start magnetization = FALSE
                      start magnetization = FALSE
                      start magnetization = FALSE
                      start magnetization = FALSE
                      start magnetization = FALSE
                      start magnetization = FALSE
                      start magnetization = FALSE
                      start magnetization = FALSE
                      start magnetization = FALSE
                      start magnetization = FALSE
                      start magnetization = FALSE
                      start magnetization = FALSE
                      start magnetization = FALSE
                      start magnetization = FALSE

 READING ATOM TYPE 3
                               atom label = Al
                      L=0, number of zeta = 1
                      L=1, number of zeta = 1
                      L=2, number of zeta = 1
             number of atom for this type = 24
                      start magnetization = FALSE
                      start magnetization = FALSE
                      start magnetization = FALSE
                      start magnetization = FALSE
                      start magnetization = FALSE
                      start magnetization = FALSE
                      start magnetization = FALSE
                      start magnetization = FALSE
                      start magnetization = FALSE
                      start magnetization = FALSE
                      start magnetization = FALSE
                      start magnetization = FALSE
                      start magnetization = FALSE
                      start magnetization = FALSE
                      start magnetization = FALSE
                      start magnetization = FALSE
                      start magnetization = FALSE
                      start magnetization = FALSE
                      start magnetization = FALSE
                      start magnetization = FALSE
                      start magnetization = FALSE
                      start magnetization = FALSE
                      start magnetization = FALSE
                      start magnetization = FALSE

                        TOTAL ATOM NUMBER = 58

 DIRECT COORDINATES
         atom                   x                   y                   z                 mag                  vx                  vy                  vz
     taud_Li1             0.31596                   0            0.709103                   0                   0                   0                   0
     taud_Li2             0.81596                 0.5            0.709103                   0                   0                   0                   0
     taud_Mg1            0.603102                   0            0.288207                   0                   0                   0                   0
     taud_Mg2            0.008862                   0            0.656659                   0                   0                   0                   0
     taud_Mg3             0.99926                   0            0.998672                   0                   0                   0                   0
     taud_Mg4             0.34315                   0            0.342919                   0                   0                   0                   0
     taud_Mg5            0.539336            0.859935            0.997193                   0                   0                   0                   0
     taud_Mg6            0.442202            0.843326            0.601943                   0                   0                   0                   0
     taud_Mg7            0.841741            0.842487            0.397791                   0                   0                   0                   0
     taud_Mg8             0.82743            0.827614            0.000932                   0                   0                   0                   0
     taud_Mg9            0.198969            0.801993            0.685403                   0                   0                   0                   0
    taud_Mg10            0.514958            0.801028            0.316445                   0                   0                   0                   0
    taud_Mg11            0.514958            0.198972            0.316445                   0                   0                   0                   0
    taud_Mg12            0.198969            0.198007            0.685403                   0                   0                   0                   0
    taud_Mg13             0.82743            0.172386            0.000932                   0                   0                   0                   0
    taud_Mg14            0.841741            0.157513            0.397791                   0                   0                   0                   0
    taud_Mg15            0.442202            0.156674            0.601943                   0                   0                   0                   0
    taud_Mg16            0.539336            0.140065            0.997193                   0                   0                   0                   0
    taud_Mg17            0.103102                 0.5            0.288207                   0                   0                   0                   0
    taud_Mg18            0.508862                 0.5            0.656659                   0                   0                   0                   0
    taud_Mg19             0.49926                 0.5            0.998672                   0                   0                   0                   0
    taud_Mg20             0.84315                 0.5            0.342919                   0                   0                   0                   0
    taud_Mg21            0.039336            0.359935            0.997193                   0                   0                   0                   0
    taud_Mg22            0.942202            0.343326            0.601943                   0                   0                   0                   0
    taud_Mg23            0.341741            0.342487            0.397791                   0                   0                   0                   0
    taud_Mg24             0.32743            0.327614            0.000932                   0                   0                   0                   0
    taud_Mg25            0.698969            0.301993            0.685403                   0                   0                   0                   0
    taud_Mg26            0.014958            0.301028            0.316445                   0                   0                   0                   0
    taud_Mg27            0.014958            0.698972            0.316445                   0                   0                   0                   0
    taud_Mg28            0.698969            0.698007            0.685403                   0                   0                   0                   0
    taud_Mg29             0.32743            0.672386            0.000932                   0                   0                   0                   0
    taud_Mg30            0.341741            0.657513            0.397791                   0                   0                   0                   0
    taud_Mg31            0.942202            0.656674            0.601943                   0                   0                   0                   0
    taud_Mg32            0.039336            0.640065            0.997193                   0                   0                   0                   0
     taud_Al1            0.815017                   0            0.180003                   0                   0                   0                   0
     taud_Al2            0.631226                   0            0.817716                   0                   0                   0                   0
     taud_Al3            0.276264            0.909176             0.00128                   0                   0                   0                   0
     taud_Al4           0.0941675            0.907608            0.368656                   0                   0                   0                   0
     taud_Al5            0.727124            0.907236            0.634622                   0                   0                   0                   0
     taud_Al6             0.49767            0.316435            0.815174                   0                   0                   0                   0
     taud_Al7            0.681857            0.316316            0.183922                   0                   0                   0                   0
     taud_Al8            0.681857            0.683684            0.183922                   0                   0                   0                   0
     taud_Al9             0.49767            0.683565            0.815174                   0                   0                   0                   0
    taud_Al10            0.727124           0.0927635            0.634622                   0                   0                   0                   0
    taud_Al11           0.0941675           0.0923915            0.368656                   0                   0                   0                   0
    taud_Al12            0.276264            0.090824             0.00128                   0                   0                   0                   0
    taud_Al13            0.315017                 0.5            0.180003                   0                   0                   0                   0
    taud_Al14            0.131226                 0.5            0.817716                   0                   0                   0                   0
    taud_Al15            0.776264            0.409176             0.00128                   0                   0                   0                   0
    taud_Al16            0.594167            0.407608            0.368656                   0                   0                   0                   0
    taud_Al17            0.227124            0.407236            0.634622                   0                   0                   0                   0
    taud_Al18             0.99767            0.816435            0.815174                   0                   0                   0                   0
    taud_Al19            0.181857            0.816316            0.183922                   0                   0                   0                   0
    taud_Al20            0.181857            0.183684            0.183922                   0                   0                   0                   0
    taud_Al21             0.99767            0.183565            0.815174                   0                   0                   0                   0
    taud_Al22            0.227124            0.592764            0.634622                   0                   0                   0                   0
    taud_Al23            0.594167            0.592392            0.368656                   0                   0                   0                   0
    taud_Al24            0.776264            0.590824             0.00128                   0                   0                   0                   0


                          Volume (Bohr^3) = 7841.17
                             Volume (A^3) = 1161.94

 Lattice vectors: (Cartesian coordinate: in unit of a_0)
                   +0            +10.5217                  +0
             +14.7968                  +0                  +0
                   +0            -5.23472            -7.46331
 Reciprocal vectors: (Cartesian coordinate: in unit of 2 pi/a_0)
                   +0          +0.0950418          -0.0666618
           +0.0675822                  -0                  +0
                   +0                  -0           -0.133989




 >>>>>>>>>>>>>>>>>>>>>>>>>>>>>>>>>>>>>>>>>>>>>>>>>>>>>>>>>>>>>>>>>>>>>>
 |                                                                    |
 | Reading pseudopotentials files:                                    |
 | The pseudopotential file is in UPF format. The 'NC' indicates that |
 | the type of pseudopotential is 'norm conserving'. Functional of    |
 | exchange and correlation is decided by 4 given parameters in UPF   |
 | file.  We also read in the 'core correction' if there exists.      |
 | Also we can read the valence electrons number and the maximal      |
 | angular momentum used in this pseudopotential. We also read in the |
 | trail wave function, trail atomic density and local-pseudopotential|
 | on logrithmic grid. The non-local pseudopotential projector is also|
 | read in if there is any.                                           |
 |                                                                    |
 <<<<<<<<<<<<<<<<<<<<<<<<<<<<<<<<<<<<<<<<<<<<<<<<<<<<<<<<<<<<<<<<<<<<<<




                PAO radial cut off (Bohr) = 16

 Read in pseudopotential file is li.gga.psp.1
                     pseudopotential type = 
          exchange-correlation functional = XC_GGA_X_PBE+XC_GGA_C_PBE
                 nonlocal core correction = 0
                        valence electrons = 1
                                     lmax = 0
                           number of zeta = 0
                     number of projectors = 0
                PAO radial cut off (Bohr) = 16

 Read in pseudopotential file is mg.gga.psp
                     pseudopotential type = 
          exchange-correlation functional = XC_GGA_X_PBE+XC_GGA_C_PBE
                 nonlocal core correction = 0
                        valence electrons = 2
                                     lmax = 0
                           number of zeta = 0
                     number of projectors = 0
                PAO radial cut off (Bohr) = 16

 Read in pseudopotential file is al.gga.psp
                     pseudopotential type = 
          exchange-correlation functional = XC_GGA_X_PBE+XC_GGA_C_PBE
                 nonlocal core correction = 0
                        valence electrons = 3
                                     lmax = 0
                           number of zeta = 0
                     number of projectors = 0
Notice: symbol 'Li_locpsp' is not an element symbol!!!! set the covalent radius to be 0.
Notice: symbol 'mg_locpsp' is not an element symbol!!!! set the covalent radius to be 0.
Notice: symbol 'al_locpsp' is not an element symbol!!!! set the covalent radius to be 0.
     initial pseudo atomic orbital number = 0
                                   NLOCAL = 522




 >>>>>>>>>>>>>>>>>>>>>>>>>>>>>>>>>>>>>>>>>>>>>>>>>>>>>>>>>>>>>>>>>>>>>>
 |                                                                    |
 | Setup plane waves of charge/potential:                             |
 | Use the energy cutoff and the lattice vectors to generate the      |
 | dimensions of FFT grid. The number of FFT grid on each processor   |
 | is 'nrxx'. The number of plane wave basis in reciprocal space is   |
 | different for charege/potential and wave functions. We also set    |
 | the 'sticks' for the parallel of FFT. The number of plane waves    |
 | is 'npw' in each processor.                                        |
 <<<<<<<<<<<<<<<<<<<<<<<<<<<<<<<<<<<<<<<<<<<<<<<<<<<<<<<<<<<<<<<<<<<<<<





 SETUP THE PLANE WAVE BASIS
 energy cutoff for charge/potential (unit:Ry) = 235.196
          [fft grid for charge/potential] = 100, 144, 90
                      [fft grid division] = 1, 1, 1
      [big fft grid for charge/potential] = 100, 144, 90
                                     nbxx = 86400
                                     nrxx = 86400

 SETUP PLANE WAVES FOR CHARGE/POTENTIAL
                    number of plane waves = 1296000
                         number of sticks = 14400

 PARALLEL PW FOR CHARGE/POTENTIAL
     PROC   COLUMNS(POT)             PW
        1            900          81000
        2            900          81000
        3            900          81000
        4            900          81000
        5            900          81000
        6            900          81000
        7            900          81000
        8            900          81000
        9            900          81000
       10            900          81000
       11            900          81000
       12            900          81000
       13            900          81000
       14            900          81000
       15            900          81000
       16            900          81000
 --------------- sum -------------------
       16          14400        1296000
                            number of |g| = 22975
                                  max |g| = 131.78
                                  min |g| = 0.292311

 SETUP THE ELECTRONS NUMBER
            electron number of element Li = 1
      total electron number of element Li = 2
            electron number of element Mg = 2
      total electron number of element Mg = 64
            electron number of element Al = 3
      total electron number of element Al = 72
            AUTOSET number of electrons:  = 138
 DONE : SETUP UNITCELL Time : 0.369605 (SEC)





 >>>>>>>>>>>>>>>>>>>>>>>>>>>>>>>>>>>>>>>>>>>>>>>>>>>>>>>>>>>>>>>>>>>>>>
 |                                                                    |
 | Doing symmetry analysis:                                           |
 | We calculate the norm of 3 vectors and the angles between them,    |
 | the type of Bravais lattice is given. We can judge if the unticell |
 | is a primitive cell. Finally we give the point group operation for |
 | this unitcell. We we use the point group operations to do symmetry |
 | analysis on given k-point mesh and the charge density.             |
 |                                                                    |
 <<<<<<<<<<<<<<<<<<<<<<<<<<<<<<<<<<<<<<<<<<<<<<<<<<<<<<<<<<<<<<<<<<<<<<




 LATTICE VECTORS: (CARTESIAN COORDINATE: IN UNIT OF A0)
                   +0            +10.5217                  +0
             +14.7968                  +0                  +0
                   +0            -5.23472            -7.46331
                       right hand lattice = 1
                                   NORM_A = 10.5217
                                   NORM_B = 14.7968
                                   NORM_C = 9.1161
                           ALPHA (DEGREE) = 90
                           BETA  (DEGREE) = 90
                           GAMMA (DEGREE) = 125.046
                             BRAVAIS TYPE = 12
                     BRAVAIS LATTICE NAME = 12. Monoclinic P (simple)
                                    IBRAV = 12
                                  BRAVAIS = SIMPLE MONOLINIC CELL
                       LATTICE CONSTANT A = 14.7968
                                B/A RATIO = 0.616086
                                C/A RATIO = 0.711079
                                COS(BETA) = 0
                                    ibrav = 12
                        ROTATION MATRICES = 4
              PURE POINT GROUP OPERATIONS = 4
                   SPACE GROUP OPERATIONS = 4
                                       C2 = 1
                                       C3 = 0
                                       C4 = 0
                                       C6 = 0
                                       S1 = 1
                                       S3 = 0
                                       S4 = 0
                                       S6 = 0
                              POINT GROUP = C_2h
Warning : If the optimal symmetric configuration is not the input configuration, 
you have to manually change configurations, ABACUS would only calculate the input structure.
 DONE : SYMMETRY Time : 0.400925 (SEC)





 >>>>>>>>>>>>>>>>>>>>>>>>>>>>>>>>>>>>>>>>>>>>>>>>>>>>>>>>>>>>>>>>>>>>>>
 |                                                                    |
 | Setup K-points                                                     |
 | We setup the k-points according to input parameters.               |
 | The reduced k-points are set according to symmetry operations.     |
 | We treat the spin as another set of k-points.                      |
 |                                                                    |
 <<<<<<<<<<<<<<<<<<<<<<<<<<<<<<<<<<<<<<<<<<<<<<<<<<<<<<<<<<<<<<<<<<<<<<





 SETUP K-POINTS
                                    nspin = 1
                   Input type of k points = Monkhorst-Pack(Gamma)
                                   nkstot = 1
                               nkstot_ibz = 1
      IBZ             DirectX             DirectY             DirectZ              Weight    ibz2bz
        1                   0                   0                   0                   1         0
                               nkstot now = 1

  KPOINTS            DIRECT_X            DIRECT_Y            DIRECT_Z              WEIGHT
        1                   0                   0                   0                   1

           k-point number in this process = 1
       minimum distributed K point number = 1

  KPOINTS         CARTESIAN_X         CARTESIAN_Y         CARTESIAN_Z              WEIGHT
        1                   0                   0                   0                   2

  KPOINTS            DIRECT_X            DIRECT_Y            DIRECT_Z              WEIGHT
        1                   0                   0                   0                   2
 DONE : INIT K-POINTS Time : 0.402095 (SEC)

 DONE : INIT BASIS Time : 0.825512 (SEC)

 DONE : INIT PHI Time : 0.825561 (SEC)


 SETUP NONLOCAL PSEUDOPOTENTIALS IN PLANE WAVE BASIS
 Li non-local projectors:
 Mg non-local projectors:
 Al non-local projectors:
      TOTAL NUMBER OF NONLOCAL PROJECTORS = 0

 nhm = 0, not allocate some matrix. DONE : LOCAL POTENTIAL Time : 5.30739 (SEC)


 Init Non-Local PseudoPotential table : 
 Init Non-Local-Pseudopotential done.
 DONE : NON-LOCAL POTENTIAL Time : 5.30744 (SEC)

Successful completion of Potential's registration : local
Successful completion of Potential's registration : hartree
Successful completion of Potential's registration : xc
                                 init_chg = atomic
 DONE : INIT POTENTIAL Time : 17.781 (SEC)

 DONE : INIT OPTIMIZATION Time : 17.7818 (SEC)

 DONE : INIT KEDF Time : 17.814 (SEC)


 charge density convergence is achieved
 final etot is -2162.76 eV



 ><><><><><><><><><><><><><><><><><><><><><><

    TOTAL-FORCE (eV/Angstrom)

 ><><><><><><><><><><><><><><><><><><><><><><

     atom              x              y              z
      Li1              0    -0.19312941    -0.25224851
      Li2              0    -0.19312859    -0.25226417
      Mg1              0    -0.14261483    +0.20141850
      Mg2              0    -0.05633702    +0.05217313
      Mg3              0    +0.06377687    -0.01362047
      Mg4              0    +0.03892300    -0.00151591
      Mg5    +0.10551575    +0.13280720    -0.07925715
      Mg6    -0.07459412    -0.02351370    +0.21349947
      Mg7    +0.03950712    -0.06087874    -0.20291682
      Mg8    -0.07449916    -0.07395873    +0.03620018
      Mg9    -0.23175924    +0.06986553    -0.00701699
     Mg10    -0.16793207    +0.10352678    +0.01577413
     Mg11    +0.16793207    +0.10352678    +0.01577413
     Mg12    +0.23175924    +0.06986553    -0.00701699
     Mg13    +0.07449916    -0.07395873    +0.03620018
     Mg14    -0.03950712    -0.06087874    -0.20291682
     Mg15    +0.07459412    -0.02351370    +0.21349947
     Mg16    -0.10551575    +0.13280720    -0.07925715
     Mg17              0    -0.14330872    +0.20022303
     Mg18              0    -0.05633648    +0.05218952
     Mg19              0    +0.06338746    -0.01386629
     Mg20              0    +0.03873654    -0.00133067
     Mg21    +0.10553991    +0.13278465    -0.07928287
     Mg22    -0.07459278    -0.02351621    +0.21350328
     Mg23    +0.03951582    -0.06088951    -0.20292327
     Mg24    -0.07494374    -0.07450616    +0.03652767
     Mg25    -0.23177024    +0.06986848    -0.00702848
     Mg26    -0.16793282    +0.10353200    +0.01577577
     Mg27    +0.16793282    +0.10353200    +0.01577577
     Mg28    +0.23177024    +0.06986848    -0.00702848
     Mg29    +0.07494374    -0.07450616    +0.03652767
     Mg30    -0.03951582    -0.06088951    -0.20292327
     Mg31    +0.07459278    -0.02351621    +0.21350328
     Mg32    -0.10553991    +0.13278465    -0.07928287
      Al1              0    +0.46211810    -0.06188491
      Al2              0    +0.73562686    -0.03673830
      Al3    -0.06146714    -0.53561821    -0.04019237
      Al4    +0.31380380    -0.08923420    +0.49511812
      Al5    +0.39180087    -0.10972035    -0.32372469
      Al6    +0.29656628    +0.10660713    -0.35524106
      Al7    +0.34346176    +0.02653765    +0.30413951
      Al8    -0.34346176    +0.02653765    +0.30413951
      Al9    -0.29656628    +0.10660713    -0.35524106
     Al10    -0.39180087    -0.10972035    -0.32372469
     Al11    -0.31380380    -0.08923420    +0.49511812
     Al12    +0.06146714    -0.53561821    -0.04019237
     Al13              0    +0.46206166    -0.06189411
     Al14              0    +0.73561302    -0.03672438
     Al15    -0.06144065    -0.53559449    -0.04023818
     Al16    +0.31380493    -0.08921630    +0.49512007
     Al17    +0.39181618    -0.10971681    -0.32368833
     Al18    +0.29656990    +0.10660328    -0.35524490
     Al19    +0.34345942    +0.02653648    +0.30413869
     Al20    -0.34345942    +0.02653648    +0.30413869
     Al21    -0.29656990    +0.10660328    -0.35524490
     Al22    -0.39181618    -0.10971681    -0.32368833
     Al23    -0.31380493    -0.08921630    +0.49512007
     Al24    +0.06144065    -0.53559449    -0.04023818


 ><><><><><><><><><><><><><><><><><><><><><><

 TOTAL-STRESS (KBAR)

 ><><><><><><><><><><><><><><><><><><><><><><

     -754.564133      +0.000000      +0.000000
       +0.000000    -756.704479      +1.161659
       +0.000000      +1.161659    -755.600295
 TOTAL-PRESSURE: -755.622969 KBAR


 --------------------------------------------
 !FINAL_ETOT_IS -2162.7617834676866551 eV
 --------------------------------------------






  |CLASS_NAME---------|NAME---------------|TIME(Sec)-----|CALLS----|AVG------|PER%-------
                                      total    +4678.56725        21   +222.79   +100.00%
                 Driver         driver_line    +4678.56138         1  +4678.56   +100.00%
               PW_Basis      setuptransform       +0.33841         1     +0.34     +0.01%
               PW_Basis  setup_struc_factor       +0.42331         1     +0.42     +0.01%
              ppcell_vl           init_vloc       +4.48160         1     +4.48     +0.10%
                 Charge          atomic_rho      +12.20952         1    +12.21     +0.26%
               PW_Basis          recip2real     +338.60017     36951     +0.01     +7.24%
               PW_Basis    gathers_scatterp     +163.38421     36951     +0.00     +3.49%
              Potential            init_pot       +0.25982         1     +0.26     +0.01%
              Potential  update_from_charge     +449.31980      1848     +0.24     +9.60%
              Potential           cal_v_eff     +449.29000      1848     +0.24     +9.60%
           H_Hartree_pw           v_hartree      +47.24385      1848     +0.03     +1.01%
               PW_Basis          real2recip     +440.49886     36953     +0.01     +9.42%
               PW_Basis    gatherp_scatters     +259.74988     36953     +0.01     +5.55%
                  PotXC           cal_v_eff     +399.00564      1848     +0.22     +8.53%
          XC_Functional                v_xc    +2321.35351       924     +2.51    +49.62%
          XC_Functional          v_xc_libxc     +397.94677      1848     +0.22     +8.51%
             ESolver_OF                 Run    +4645.81649         1  +4645.82    +99.30%
                KEDF_vW        vw_potential      +40.70961      1847     +0.02     +0.87%
                 Forces       cal_force_loc       +0.34757         1     +0.35     +0.01%
                 Forces        cal_force_ew       +0.34026         1     +0.34     +0.01%
           OF_Stress_PW          cal_stress      +14.23722         1    +14.24     +0.30%
            Stress_Func          stress_ewa       +0.37275         1     +0.37     +0.01%
            Stress_Func          stress_gga       +0.19141         1     +0.19     +0.00%
            Stress_Func          stress_loc      +13.66146         1    +13.66     +0.29%
 ----------------------------------------------------------------------------------------

 CLASS_NAME---------|NAME---------------|MEMORY(MB)--------
                                         +10.6851
             PW_Basis           struc_fac        +3.7079
 ----------------------------------------------------------

 Start  Time  : Mon May 15 23:48:44 2023
 Finish Time  : Tue May 16 01:06:53 2023
 Total  Time  : 1 h 18 mins 9 secs 
