                                                                                     
                             WELCOME TO ABACUS v3.0                                  
                                                                                     
               'Atomic-orbital Based Ab-initio Computation at UStc'                  
                                                                                     
                     Website: http://abacus.ustc.edu.cn/                             
                                                                                     
    Version: Parallel, in development
    Processor Number is 1
    Start Time is Sat May 13 19:47:26 2023
                                                                                     
 ------------------------------------------------------------------------------------

 READING GENERAL INFORMATION
                           global_out_dir = OUT.oftest/
                           global_in_card = INPUT
                               pseudo_dir = 
                              orbital_dir = 
                                    DRANK = 1
                                    DSIZE = 1
                                   DCOLOR = 1
                                    GRANK = 1
                                    GSIZE = 1
 The esolver type has been set to : ofdft




 >>>>>>>>>>>>>>>>>>>>>>>>>>>>>>>>>>>>>>>>>>>>>>>>>>>>>>>>>>>>>>>>>>>>>>
 |                                                                    |
 | Reading atom information in unitcell:                              |
 | From the input file and the structure file we know the number of   |
 | different elments in this unitcell, then we list the detail        |
 | information for each element, especially the zeta and polar atomic |
 | orbital number for each element. The total atom number is counted. |
 | We calculate the nearest atom distance for each atom and show the  |
 | Cartesian and Direct coordinates for each atom. We list the file   |
 | address for atomic orbitals. The volume and the lattice vectors    |
 | in real and reciprocal space is also shown.                        |
 |                                                                    |
 <<<<<<<<<<<<<<<<<<<<<<<<<<<<<<<<<<<<<<<<<<<<<<<<<<<<<<<<<<<<<<<<<<<<<<




 READING UNITCELL INFORMATION
                                    ntype = 2
                 atom label for species 1 = Li
                 atom label for species 2 = Mg
                  lattice constant (Bohr) = 1.88973
              lattice constant (Angstrom) = 1

 READING ATOM TYPE 1
                               atom label = Li
                      L=0, number of zeta = 1
                      L=1, number of zeta = 1
                      L=2, number of zeta = 1
             number of atom for this type = 4
                      start magnetization = FALSE
                      start magnetization = FALSE
                      start magnetization = FALSE
                      start magnetization = FALSE

 READING ATOM TYPE 2
                               atom label = Mg
                      L=0, number of zeta = 1
                      L=1, number of zeta = 1
                      L=2, number of zeta = 1
             number of atom for this type = 4
                      start magnetization = FALSE
                      start magnetization = FALSE
                      start magnetization = FALSE
                      start magnetization = FALSE

                        TOTAL ATOM NUMBER = 8

 DIRECT COORDINATES
         atom                   x                   y                   z                 mag                  vx                  vy                  vz
     taud_Li1            0.125181                 0.5            0.291595                   0                   0                   0                   0
     taud_Li2            0.374819                   0            0.708405                   0                   0                   0                   0
     taud_Li3            0.625181                   0            0.291595                   0                   0                   0                   0
     taud_Li4            0.874819                 0.5            0.708405                   0                   0                   0                   0
     taud_Mg1            0.376323                 0.5            0.206517                   0                   0                   0                   0
     taud_Mg2            0.123677                   0            0.793483                   0                   0                   0                   0
     taud_Mg3            0.876323                   0            0.206517                   0                   0                   0                   0
     taud_Mg4            0.623677                 0.5            0.793483                   0                   0                   0                   0


                          Volume (Bohr^3) = 1131.19
                             Volume (A^3) = 167.624

 Lattice vectors: (Cartesian coordinate: in unit of a_0)
                   +0            +11.3941                  +0
             +3.08818                  +0                  +0
                   +0            -2.44632             -4.7638
 Reciprocal vectors: (Cartesian coordinate: in unit of 2 pi/a_0)
                   +0          +0.0877643           -0.045069
            +0.323815                  -0                  +0
                   +0                  -0           -0.209917




 >>>>>>>>>>>>>>>>>>>>>>>>>>>>>>>>>>>>>>>>>>>>>>>>>>>>>>>>>>>>>>>>>>>>>>
 |                                                                    |
 | Reading pseudopotentials files:                                    |
 | The pseudopotential file is in UPF format. The 'NC' indicates that |
 | the type of pseudopotential is 'norm conserving'. Functional of    |
 | exchange and correlation is decided by 4 given parameters in UPF   |
 | file.  We also read in the 'core correction' if there exists.      |
 | Also we can read the valence electrons number and the maximal      |
 | angular momentum used in this pseudopotential. We also read in the |
 | trail wave function, trail atomic density and local-pseudopotential|
 | on logrithmic grid. The non-local pseudopotential projector is also|
 | read in if there is any.                                           |
 |                                                                    |
 <<<<<<<<<<<<<<<<<<<<<<<<<<<<<<<<<<<<<<<<<<<<<<<<<<<<<<<<<<<<<<<<<<<<<<




                PAO radial cut off (Bohr) = 16

 Read in pseudopotential file is li.gga.psp.1
                     pseudopotential type = 
          exchange-correlation functional = XC_GGA_X_PBE+XC_GGA_C_PBE
                 nonlocal core correction = 0
                        valence electrons = 1
                                     lmax = 0
                           number of zeta = 0
                     number of projectors = 0
                PAO radial cut off (Bohr) = 16

 Read in pseudopotential file is mg.gga.psp
                     pseudopotential type = 
          exchange-correlation functional = XC_GGA_X_PBE+XC_GGA_C_PBE
                 nonlocal core correction = 0
                        valence electrons = 2
                                     lmax = 0
                           number of zeta = 0
                     number of projectors = 0
Notice: symbol 'Li_locpsp' is not an element symbol!!!! set the covalent radius to be 0.
Notice: symbol 'mg_locpsp' is not an element symbol!!!! set the covalent radius to be 0.
     initial pseudo atomic orbital number = 0
                                   NLOCAL = 72




 >>>>>>>>>>>>>>>>>>>>>>>>>>>>>>>>>>>>>>>>>>>>>>>>>>>>>>>>>>>>>>>>>>>>>>
 |                                                                    |
 | Setup plane waves of charge/potential:                             |
 | Use the energy cutoff and the lattice vectors to generate the      |
 | dimensions of FFT grid. The number of FFT grid on each processor   |
 | is 'nrxx'. The number of plane wave basis in reciprocal space is   |
 | different for charege/potential and wave functions. We also set    |
 | the 'sticks' for the parallel of FFT. The number of plane waves    |
 | is 'npw' in each processor.                                        |
 <<<<<<<<<<<<<<<<<<<<<<<<<<<<<<<<<<<<<<<<<<<<<<<<<<<<<<<<<<<<<<<<<<<<<<





 SETUP THE PLANE WAVE BASIS
 energy cutoff for charge/potential (unit:Ry) = 235.196
          [fft grid for charge/potential] = 108, 30, 50
                      [fft grid division] = 1, 1, 1
      [big fft grid for charge/potential] = 108, 30, 50
                                     nbxx = 162000
                                     nrxx = 162000

 SETUP PLANE WAVES FOR CHARGE/POTENTIAL
                    number of plane waves = 162000
                         number of sticks = 3240

 PARALLEL PW FOR CHARGE/POTENTIAL
     PROC   COLUMNS(POT)             PW
        1           3240         162000
 --------------- sum -------------------
        1           3240         162000
                            number of |g| = 44464
                                  max |g| = 105.061
                                  min |g| = 0

 SETUP THE ELECTRONS NUMBER
            electron number of element Li = 1
      total electron number of element Li = 4
            electron number of element Mg = 2
      total electron number of element Mg = 8
            AUTOSET number of electrons:  = 12
 DONE : SETUP UNITCELL Time : 0.556528 (SEC)





 >>>>>>>>>>>>>>>>>>>>>>>>>>>>>>>>>>>>>>>>>>>>>>>>>>>>>>>>>>>>>>>>>>>>>>
 |                                                                    |
 | Doing symmetry analysis:                                           |
 | We calculate the norm of 3 vectors and the angles between them,    |
 | the type of Bravais lattice is given. We can judge if the unticell |
 | is a primitive cell. Finally we give the point group operation for |
 | this unitcell. We we use the point group operations to do symmetry |
 | analysis on given k-point mesh and the charge density.             |
 |                                                                    |
 <<<<<<<<<<<<<<<<<<<<<<<<<<<<<<<<<<<<<<<<<<<<<<<<<<<<<<<<<<<<<<<<<<<<<<




 LATTICE VECTORS: (CARTESIAN COORDINATE: IN UNIT OF A0)
                   +0            +11.3941                  +0
             +3.08818                  +0                  +0
                   +0            -2.44632             -4.7638
                       right hand lattice = 1
                                   NORM_A = 11.3941
                                   NORM_B = 3.08818
                                   NORM_C = 5.35521
                           ALPHA (DEGREE) = 90
                           BETA  (DEGREE) = 90
                           GAMMA (DEGREE) = 117.182
                             BRAVAIS TYPE = 12
                     BRAVAIS LATTICE NAME = 12. Monoclinic P (simple)
                                    IBRAV = 12
                                  BRAVAIS = SIMPLE MONOLINIC CELL
                       LATTICE CONSTANT A = 3.08818
                                B/A RATIO = 1.7341
                                C/A RATIO = 3.6896
                                COS(BETA) = 0
                                    ibrav = 12
                        ROTATION MATRICES = 4
              PURE POINT GROUP OPERATIONS = 4
                   SPACE GROUP OPERATIONS = 4
                                       C2 = 1
                                       C3 = 0
                                       C4 = 0
                                       C6 = 0
                                       S1 = 1
                                       S3 = 0
                                       S4 = 0
                                       S6 = 0
                              POINT GROUP = C_2h
Warning : If the optimal symmetric configuration is not the input configuration, 
you have to manually change configurations, ABACUS would only calculate the input structure.
 DONE : SYMMETRY Time : 0.610924 (SEC)





 >>>>>>>>>>>>>>>>>>>>>>>>>>>>>>>>>>>>>>>>>>>>>>>>>>>>>>>>>>>>>>>>>>>>>>
 |                                                                    |
 | Setup K-points                                                     |
 | We setup the k-points according to input parameters.               |
 | The reduced k-points are set according to symmetry operations.     |
 | We treat the spin as another set of k-points.                      |
 |                                                                    |
 <<<<<<<<<<<<<<<<<<<<<<<<<<<<<<<<<<<<<<<<<<<<<<<<<<<<<<<<<<<<<<<<<<<<<<





 SETUP K-POINTS
                                    nspin = 1
                   Input type of k points = Monkhorst-Pack(Gamma)
                                   nkstot = 1
                               nkstot_ibz = 1
      IBZ             DirectX             DirectY             DirectZ              Weight    ibz2bz
        1                   0                   0                   0                   1         0
                               nkstot now = 1

  KPOINTS            DIRECT_X            DIRECT_Y            DIRECT_Z              WEIGHT
        1                   0                   0                   0                   1

           k-point number in this process = 1
       minimum distributed K point number = 1

  KPOINTS         CARTESIAN_X         CARTESIAN_Y         CARTESIAN_Z              WEIGHT
        1                   0                   0                   0                   2

  KPOINTS            DIRECT_X            DIRECT_Y            DIRECT_Z              WEIGHT
        1                   0                   0                   0                   2
 DONE : INIT K-POINTS Time : 0.611177 (SEC)

 DONE : INIT BASIS Time : 0.761618 (SEC)

 DONE : INIT PHI Time : 0.761669 (SEC)


 SETUP NONLOCAL PSEUDOPOTENTIALS IN PLANE WAVE BASIS
 Li non-local projectors:
 Mg non-local projectors:
      TOTAL NUMBER OF NONLOCAL PROJECTORS = 0

 nhm = 0, not allocate some matrix. DONE : LOCAL POTENTIAL Time : 8.33193 (SEC)


 Init Non-Local PseudoPotential table : 
 Init Non-Local-Pseudopotential done.
 DONE : NON-LOCAL POTENTIAL Time : 8.33201 (SEC)

Successful completion of Potential's registration : local
Successful completion of Potential's registration : hartree
Successful completion of Potential's registration : xc
                                 init_chg = atomic
 DONE : INIT POTENTIAL Time : 16.3699 (SEC)

 DONE : INIT OPTIMIZATION Time : 16.3708 (SEC)

 DONE : INIT KEDF Time : 16.4728 (SEC)


 charge density convergence is achieved
 final etot is -127.958 eV



 ><><><><><><><><><><><><><><><><><><><><><><

    TOTAL-FORCE (eV/Angstrom)

 ><><><><><><><><><><><><><><><><><><><><><><

     atom              x              y              z
      Li1              0    +0.06424138    -0.06353099
      Li2              0    -0.06417789    +0.06361503
      Li3              0    +0.06417789    -0.06361503
      Li4              0    -0.06424138    +0.06353099
      Mg1              0    -0.18192355    +0.06780425
      Mg2              0    +0.18192160    -0.06779018
      Mg3              0    -0.18192160    +0.06779018
      Mg4              0    +0.18192355    -0.06780425


 ><><><><><><><><><><><><><><><><><><><><><><

 TOTAL-STRESS (KBAR)

 ><><><><><><><><><><><><><><><><><><><><><><

     -319.837963      +0.000000      +0.000000
       +0.000000    -316.586621      +7.586908
       +0.000000      +7.586908    -319.971097
 TOTAL-PRESSURE: -318.798560 KBAR


 --------------------------------------------
 !FINAL_ETOT_IS -127.9583144924487783 eV
 --------------------------------------------






  |CLASS_NAME---------|NAME---------------|TIME(Sec)-----|CALLS----|AVG------|PER%-------
                                      total    +1944.84026        21    +92.61   +100.00%
                 Driver         driver_line    +1944.82967         1  +1944.83   +100.00%
               PW_Basis      setuptransform       +0.48214         1     +0.48     +0.02%
               PW_Basis  setup_struc_factor       +0.15025         1     +0.15     +0.01%
              ppcell_vl           init_vloc       +7.57004         1     +7.57     +0.39%
                 Charge          atomic_rho       +7.73139         1     +7.73     +0.40%
               PW_Basis          recip2real      +49.72577      5391     +0.01     +2.56%
               PW_Basis    gathers_scatterp       +3.71512      5391     +0.00     +0.19%
              Potential            init_pot       +0.29661         1     +0.30     +0.02%
              Potential  update_from_charge      +67.61790       270     +0.25     +3.48%
              Potential           cal_v_eff      +67.60132       270     +0.25     +3.48%
           H_Hartree_pw           v_hartree       +5.86965       270     +0.02     +0.30%
               PW_Basis          real2recip      +51.21882      5393     +0.01     +2.63%
               PW_Basis    gatherp_scatters       +2.42181      5393     +0.00     +0.12%
                  PotXC           cal_v_eff      +61.55069       270     +0.23     +3.16%
          XC_Functional                v_xc     +953.09258       135     +7.06    +49.01%
          XC_Functional          v_xc_libxc      +61.46655       270     +0.23     +3.16%
             ESolver_OF                 Run    +1913.82054         1  +1913.82    +98.41%
                KEDF_vW        vw_potential       +5.63907       269     +0.02     +0.29%
                 Forces       cal_force_loc       +0.13498         1     +0.13     +0.01%
                 Forces        cal_force_ew       +0.12380         1     +0.12     +0.01%
           OF_Stress_PW          cal_stress      +14.28156         1    +14.28     +0.73%
            Stress_Func          stress_ewa       +0.15064         1     +0.15     +0.01%
            Stress_Func          stress_gga       +0.44151         1     +0.44     +0.02%
            Stress_Func          stress_loc      +13.67455         1    +13.67     +0.70%
 ----------------------------------------------------------------------------------------

 CLASS_NAME---------|NAME---------------|MEMORY(MB)--------
                                         +17.3496
             PW_Basis           struc_fac        +4.9438
               Charge                 rho        +1.2360
               Charge            rho_save        +1.2360
               Charge                rhog        +1.2360
               Charge           rhog_save        +1.2360
               Charge               kin_r        +1.2360
               Charge          kin_r_save        +1.2360
               Charge            rho_core        +1.2360
               Charge           rhog_core        +1.2360
            Potential   v_effective_fixed        +1.2360
            Potential              vr_eff        +1.2360
 ----------------------------------------------------------

 Start  Time  : Sat May 13 19:47:26 2023
 Finish Time  : Sat May 13 20:19:51 2023
 Total  Time  : 0 h 32 mins 25 secs 
