                                                                                     
                             WELCOME TO ABACUS                                       
                                                                                     
               'Atomic-orbital Based Ab-initio Computation at UStc'                  
                                                                                     
                     Website: http://abacus.ustc.edu.cn/                             
                                                                                     
    Version: Parallel, in development
    Processor Number is 16
    Start Time is Sun Mar 27 11:30:47 2022
                                                                                     
 ------------------------------------------------------------------------------------

 READING GENERAL INFORMATION
                           global_out_dir = OUT.stack/
                           global_in_card = INPUT
                               pseudo_dir = 
                              orbital_dir = 
                              pseudo_type = blps
                                    DRANK = 1
                                    DSIZE = 16
                                   DCOLOR = 1
                                    GRANK = 1
                                    GSIZE = 1




 >>>>>>>>>>>>>>>>>>>>>>>>>>>>>>>>>>>>>>>>>>>>>>>>>>>>>>>>>>>>>>>>>>>>>>
 |                                                                    |
 | Reading atom information in unitcell:                              |
 | From the input file and the structure file we know the number of   |
 | different elments in this unitcell, then we list the detail        |
 | information for each element, especially the zeta and polar atomic |
 | orbital number for each element. The total atom number is counted. |
 | We calculate the nearest atom distance for each atom and show the  |
 | Cartesian and Direct coordinates for each atom. We list the file   |
 | address for atomic orbitals. The volume and the lattice vectors    |
 | in real and reciprocal space is also shown.                        |
 |                                                                    |
 <<<<<<<<<<<<<<<<<<<<<<<<<<<<<<<<<<<<<<<<<<<<<<<<<<<<<<<<<<<<<<<<<<<<<<




 READING UNITCELL INFORMATION
                                    ntype = 1
                 atom label for species 1 = Al
                  lattice constant (Bohr) = 7.50241
              lattice constant (Angstrom) = 3.9701

 READING ATOM TYPE 1
                               atom label = Al
                      L=0, number of zeta = 1
                      L=1, number of zeta = 1
                      L=2, number of zeta = 1
             number of atom for this type = 21
                      start magnetization = FALSE
                      start magnetization = FALSE
                      start magnetization = FALSE
                      start magnetization = FALSE
                      start magnetization = FALSE
                      start magnetization = FALSE
                      start magnetization = FALSE
                      start magnetization = FALSE
                      start magnetization = FALSE
                      start magnetization = FALSE
                      start magnetization = FALSE
                      start magnetization = FALSE
                      start magnetization = FALSE
                      start magnetization = FALSE
                      start magnetization = FALSE
                      start magnetization = FALSE
                      start magnetization = FALSE
                      start magnetization = FALSE
                      start magnetization = FALSE
                      start magnetization = FALSE
                      start magnetization = FALSE

                        TOTAL ATOM NUMBER = 21

 DIRECT COORDINATES
         atom                   x                   y                   z                 mag                  vx                  vy                  vz
     taud_Al1                   0                   0                   0                   0                   0                   0                   0
     taud_Al2            0.333333            0.333333            0.047619                   0                   0                   0                   0
     taud_Al3            0.666667            0.666667           0.0952381                   0                   0                   0                   0
     taud_Al4                   0                   0            0.142857                   0                   0                   0                   0
     taud_Al5            0.333333            0.333333            0.190476                   0                   0                   0                   0
     taud_Al6            0.666667            0.666667            0.238095                   0                   0                   0                   0
     taud_Al7                   0                   0            0.285714                   0                   0                   0                   0
     taud_Al8            0.333333            0.333333            0.333333                   0                   0                   0                   0
     taud_Al9            0.666667            0.666667            0.380952                   0                   0                   0                   0
    taud_Al10                   0                   0            0.428571                   0                   0                   0                   0
    taud_Al11            0.333333            0.333333             0.47619                   0                   0                   0                   0
    taud_Al12            0.666667            0.666667             0.52381                   0                   0                   0                   0
    taud_Al13                   0                   0            0.571429                   0                   0                   0                   0
    taud_Al14            0.333333            0.333333            0.619048                   0                   0                   0                   0
    taud_Al15            0.666667            0.666667            0.666667                   0                   0                   0                   0
    taud_Al16                   0                   0            0.714286                   0                   0                   0                   0
    taud_Al17            0.333333            0.333333            0.761905                   0                   0                   0                   0
    taud_Al18            0.666667            0.666667            0.809524                   0                   0                   0                   0
    taud_Al19                   0                   0            0.857143                   0                   0                   0                   0
    taud_Al20            0.333333            0.333333            0.904762                   0                   0                   0                   0
    taud_Al21            0.666667            0.666667            0.952381                   0                   0                   0                   0


                          Volume (Bohr^3) = 2216.98
                             Volume (A^3) = 328.522

 Lattice vectors: (Cartesian coordinate: in unit of a_0)
            +0.707107                  +0                  +0
            +0.353553           +0.612372                  +0
                   +0                  +0            +12.1244
 Reciprocal vectors: (Cartesian coordinate: in unit of 2 pi/a_0)
             +1.41421           -0.816497                  +0
                   +0            +1.63299                  -0
                   +0                  -0          +0.0824786




 >>>>>>>>>>>>>>>>>>>>>>>>>>>>>>>>>>>>>>>>>>>>>>>>>>>>>>>>>>>>>>>>>>>>>>
 |                                                                    |
 | Reading pseudopotentials files:                                    |
 | The pseudopotential file is in UPF format. The 'NC' indicates that |
 | the type of pseudopotential is 'norm conserving'. Functional of    |
 | exchange and correlation is decided by 4 given parameters in UPF   |
 | file.  We also read in the 'core correction' if there exists.      |
 | Also we can read the valence electrons number and the maximal      |
 | angular momentum used in this pseudopotential. We also read in the |
 | trail wave function, trail atomic density and local-pseudopotential|
 | on logrithmic grid. The non-local pseudopotential projector is also|
 | read in if there is any.                                           |
 |                                                                    |
 <<<<<<<<<<<<<<<<<<<<<<<<<<<<<<<<<<<<<<<<<<<<<<<<<<<<<<<<<<<<<<<<<<<<<<




                PAO radial cut off (Bohr) = 16

 Read in pseudopotential file is al.lda.lps
                     pseudopotential type = 
                            functional Ex = LDA
                            functional Ec = LDA
                          functional GCEx = NOGX
                          functional GCEc = NOGC
                 nonlocal core correction = 0
                        valence electrons = 3
                                     lmax = 0
                           number of zeta = 0
                     number of projectors = 0
     initial pseudo atomic orbital number = 0
                                   NLOCAL = 189

 SETUP THE ELECTRONS NUMBER
            electron number of element Al = 3
      total electron number of element Al = 63
                           occupied bands = 32
                                   NBANDS = 40
 DONE : SETUP UNITCELL Time : 0.00886971 (SEC)





 >>>>>>>>>>>>>>>>>>>>>>>>>>>>>>>>>>>>>>>>>>>>>>>>>>>>>>>>>>>>>>>>>>>>>>
 |                                                                    |
 | Doing symmetry analysis:                                           |
 | We calculate the norm of 3 vectors and the angles between them,    |
 | the type of Bravais lattice is given. We can judge if the unticell |
 | is a primitive cell. Finally we give the point group operation for |
 | this unitcell. We we use the point group operations to do symmetry |
 | analysis on given k-point mesh and the charge density.             |
 |                                                                    |
 <<<<<<<<<<<<<<<<<<<<<<<<<<<<<<<<<<<<<<<<<<<<<<<<<<<<<<<<<<<<<<<<<<<<<<




 LATTICE VECTORS: (CARTESIAN COORDINATE: IN UNIT OF A0)
            +0.707107                  +0                  +0
            +0.353553           +0.612372                  +0
                   +0                  +0            +12.1244
                       right hand lattice = 1
                                   NORM_A = 0.707107
                                   NORM_B = 0.707107
                                   NORM_C = 12.1244
                           ALPHA (DEGREE) = 60
                           BETA  (DEGREE) = 90
                           GAMMA (DEGREE) = 90
                             BRAVAIS TYPE = 4
                     BRAVAIS LATTICE NAME = 04. Hexagonal cell
 STANDARD LATTICE VECTORS: (CARTESIAN COORDINATE: IN UNIT OF A0)
            +0.707107                  +0                  +0
            +0.353553           +0.612372                  +0
                   +0                  +0            +12.1244
                                    IBRAV = 4
                                  BRAVAIS = HEXAGONAL CELL
                       LATTICE CONSTANT A = 36.4623
                                C/A RATIO = 0.667011
                                    ibrav = 4
                        ROTATION MATRICES = 24
              PURE POINT GROUP OPERATIONS = 4
                   SPACE GROUP OPERATIONS = 4
                                       C2 = 1
                                       C3 = 0
                                       C4 = 0
                                       C6 = 0
                                       S1 = 1
                                       S3 = 0
                                       S4 = 0
                                       S6 = 0
                              POINT GROUP = C_2h
 DONE : SYMMETRY Time : 0.0420686 (SEC)





 >>>>>>>>>>>>>>>>>>>>>>>>>>>>>>>>>>>>>>>>>>>>>>>>>>>>>>>>>>>>>>>>>>>>>>
 |                                                                    |
 | Setup K-points                                                     |
 | We setup the k-points according to input parameters.               |
 | The reduced k-points are set according to symmetry operations.     |
 | We treat the spin as another set of k-points.                      |
 |                                                                    |
 <<<<<<<<<<<<<<<<<<<<<<<<<<<<<<<<<<<<<<<<<<<<<<<<<<<<<<<<<<<<<<<<<<<<<<





 SETUP K-POINTS
                                    nspin = 1
                   Input type of k points = Monkhorst-Pack(Gamma)
                                   nkstot = 100
                               nkstot_ibz = 31
      IBZ             DirectX             DirectY             DirectZ              Weight    ibz2bz
        1                   0                   0                 0.5                0.01         0
        2                 0.9                   0                 0.5                0.04         1
        3                 0.8                   0                 0.5                0.04         2
        4                 0.7                   0                 0.5                0.04         3
        5                 0.6                   0                 0.5                0.04         4
        6                   0                 0.5                 0.5                0.02         5
        7                 0.9                 0.9                 0.5                0.02        11
        8                 0.9                 0.8                 0.5                0.04        12
        9                 0.9                 0.7                 0.5                0.04        13
       10                 0.9                 0.6                 0.5                0.04        14
       11                 0.9                 0.5                 0.5                0.04        15
       12                 0.9                 0.4                 0.5                0.04        16
       13                 0.9                 0.3                 0.5                0.04        17
       14                 0.9                 0.2                 0.5                0.04        18
       15                 0.1                 0.9                 0.5                0.02        19
       16                 0.8                 0.8                 0.5                0.02        22
       17                 0.8                 0.7                 0.5                0.04        23
       18                 0.8                 0.6                 0.5                0.04        24
       19                 0.8                 0.5                 0.5                0.04        25
       20                 0.8                 0.4                 0.5                0.04        26
       21                 0.8                 0.3                 0.5                0.04        27
       22                 0.2                 0.8                 0.5                0.02        28
       23                 0.7                 0.7                 0.5                0.02        33
       24                 0.7                 0.6                 0.5                0.04        34
       25                 0.7                 0.5                 0.5                0.04        35
       26                 0.7                 0.4                 0.5                0.04        36
       27                 0.3                 0.7                 0.5                0.02        37
       28                 0.6                 0.6                 0.5                0.02        44
       29                 0.6                 0.5                 0.5                0.04        45
       30                 0.4                 0.6                 0.5                0.02        46
       31                 0.5                 0.5                 0.5                0.01        55
                               nkstot now = 31

  KPOINTS            DIRECT_X            DIRECT_Y            DIRECT_Z              WEIGHT
        1                   0                   0                 0.5                0.01
        2                 0.9                   0                 0.5                0.04
        3                 0.8                   0                 0.5                0.04
        4                 0.7                   0                 0.5                0.04
        5                 0.6                   0                 0.5                0.04
        6                   0                 0.5                 0.5                0.02
        7                 0.9                 0.9                 0.5                0.02
        8                 0.9                 0.8                 0.5                0.04
        9                 0.9                 0.7                 0.5                0.04
       10                 0.9                 0.6                 0.5                0.04
       11                 0.9                 0.5                 0.5                0.04
       12                 0.9                 0.4                 0.5                0.04
       13                 0.9                 0.3                 0.5                0.04
       14                 0.9                 0.2                 0.5                0.04
       15                 0.1                 0.9                 0.5                0.02
       16                 0.8                 0.8                 0.5                0.02
       17                 0.8                 0.7                 0.5                0.04
       18                 0.8                 0.6                 0.5                0.04
       19                 0.8                 0.5                 0.5                0.04
       20                 0.8                 0.4                 0.5                0.04
       21                 0.8                 0.3                 0.5                0.04
       22                 0.2                 0.8                 0.5                0.02
       23                 0.7                 0.7                 0.5                0.02
       24                 0.7                 0.6                 0.5                0.04
       25                 0.7                 0.5                 0.5                0.04
       26                 0.7                 0.4                 0.5                0.04
       27                 0.3                 0.7                 0.5                0.02
       28                 0.6                 0.6                 0.5                0.02
       29                 0.6                 0.5                 0.5                0.04
       30                 0.4                 0.6                 0.5                0.02
       31                 0.5                 0.5                 0.5                0.01

           k-point number in this process = 31
       minimum distributed K point number = 31

  KPOINTS         CARTESIAN_X         CARTESIAN_Y         CARTESIAN_Z              WEIGHT
        1                   0                   0           0.0412393                0.02
        2             1.27279           -0.734847           0.0412393                0.08
        3             1.13137           -0.653197           0.0412393                0.08
        4            0.989949           -0.571548           0.0412393                0.08
        5            0.848528           -0.489898           0.0412393                0.08
        6                   0            0.816497           0.0412393                0.04
        7             1.27279            0.734847           0.0412393                0.04
        8             1.27279            0.571548           0.0412393                0.08
        9             1.27279            0.408248           0.0412393                0.08
       10             1.27279            0.244949           0.0412393                0.08
       11             1.27279           0.0816497           0.0412393                0.08
       12             1.27279          -0.0816497           0.0412393                0.08
       13             1.27279           -0.244949           0.0412393                0.08
       14             1.27279           -0.408248           0.0412393                0.08
       15            0.141421             1.38804           0.0412393                0.04
       16             1.13137            0.653197           0.0412393                0.04
       17             1.13137            0.489898           0.0412393                0.08
       18             1.13137            0.326599           0.0412393                0.08
       19             1.13137            0.163299           0.0412393                0.08
       20             1.13137                   0           0.0412393                0.08
       21             1.13137           -0.163299           0.0412393                0.08
       22            0.282843              1.1431           0.0412393                0.04
       23            0.989949            0.571548           0.0412393                0.04
       24            0.989949            0.408248           0.0412393                0.08
       25            0.989949            0.244949           0.0412393                0.08
       26            0.989949           0.0816497           0.0412393                0.08
       27            0.424264            0.898146           0.0412393                0.04
       28            0.848528            0.489898           0.0412393                0.04
       29            0.848528            0.326599           0.0412393                0.08
       30            0.565685            0.653197           0.0412393                0.04
       31            0.707107            0.408248           0.0412393                0.02

  KPOINTS            DIRECT_X            DIRECT_Y            DIRECT_Z              WEIGHT
        1                   0                   0                 0.5                0.02
        2                 0.9                   0                 0.5                0.08
        3                 0.8                   0                 0.5                0.08
        4                 0.7                   0                 0.5                0.08
        5                 0.6                   0                 0.5                0.08
        6                   0                 0.5                 0.5                0.04
        7                 0.9                 0.9                 0.5                0.04
        8                 0.9                 0.8                 0.5                0.08
        9                 0.9                 0.7                 0.5                0.08
       10                 0.9                 0.6                 0.5                0.08
       11                 0.9                 0.5                 0.5                0.08
       12                 0.9                 0.4                 0.5                0.08
       13                 0.9                 0.3                 0.5                0.08
       14                 0.9                 0.2                 0.5                0.08
       15                 0.1                 0.9                 0.5                0.04
       16                 0.8                 0.8                 0.5                0.04
       17                 0.8                 0.7                 0.5                0.08
       18                 0.8                 0.6                 0.5                0.08
       19                 0.8                 0.5                 0.5                0.08
       20                 0.8                 0.4                 0.5                0.08
       21                 0.8                 0.3                 0.5                0.08
       22                 0.2                 0.8                 0.5                0.04
       23                 0.7                 0.7                 0.5                0.04
       24                 0.7                 0.6                 0.5                0.08
       25                 0.7                 0.5                 0.5                0.08
       26                 0.7                 0.4                 0.5                0.08
       27                 0.3                 0.7                 0.5                0.04
       28                 0.6                 0.6                 0.5                0.04
       29                 0.6                 0.5                 0.5                0.08
       30                 0.4                 0.6                 0.5                0.04
       31                 0.5                 0.5                 0.5                0.02
 DONE : INIT K-POINTS Time : 0.042731 (SEC)





 >>>>>>>>>>>>>>>>>>>>>>>>>>>>>>>>>>>>>>>>>>>>>>>>>>>>>>>>>>>>>>>>>>>>>>
 |                                                                    |
 | Setup plane waves:                                                 |
 | Use the energy cutoff and the lattice vectors to generate the      |
 | dimensions of FFT grid. The number of FFT grid on each processor   |
 | is 'nrxx'. The number of plane wave basis in reciprocal space is   |
 | different for charege/potential and wave functions. We also set    |
 | the 'sticks' for the parallel of FFT.                              |
 |                                                                    |
 <<<<<<<<<<<<<<<<<<<<<<<<<<<<<<<<<<<<<<<<<<<<<<<<<<<<<<<<<<<<<<<<<<<<<<





 SETUP THE PLANE WAVE BASIS
     energy cutoff for wavefunc (unit:Ry) = 40
            [fft grid for wave functions] = 24, 24, 375
          [fft grid for charge/potential] = 24, 24, 375
                      [fft grid division] = 1, 1, 1
      [big fft grid for charge/potential] = 24, 24, 375
                                     nbxx = 13824
                                     nrxx = 13824

 SETUP PLANE WAVES FOR CHARGE/POTENTIAL
                    number of plane waves = 76123
                         number of sticks = 313

 SETUP PLANE WAVES FOR WAVE FUNCTIONS
                    number of plane waves = 16155
                         number of sticks = 109

 PARALLEL PW FOR CHARGE/POTENTIAL
     PROC   COLUMNS(POT)             PW
        1             20           4754
        2             19           4739
        3             20           4784
        4             19           4739
        5             20           4752
        6             20           4752
        7             20           4786
        8             20           4786
        9             20           4786
       10             19           4737
       11             19           4739
       12             19           4737
       13             19           4739
       14             20           4774
       15             20           4782
       16             19           4737
 --------------- sum -------------------
       16            313          76123

 PARALLEL PW FOR WAVE FUNCTIONS
     PROC     COLUMNS(W)             PW
        1              6            984
        2              7           1003
        3              7           1017
        4              7           1017
        5              7           1017
        6              7           1017
        7              7           1017
        8              7           1007
        9              7           1007
       10              7           1039
       11              7           1039
       12              6            976
       13              6            982
       14              7           1019
       15              7           1013
       16              7           1001
 --------------- sum -------------------
       16            109          16155

 SETUP COORDINATES OF PLANE WAVES
              number of total plane waves = 76123

 SETUP COORDINATES OF PLANE WAVES
                            number of |g| = 1747
                                  max |g| = 228.109
                                  min |g| = 0
 DONE : INIT PLANEWAVE Time : 0.0836417 (SEC)

                                     npwx = 766

 SETUP NONLOCAL PSEUDOPOTENTIALS IN PLANE WAVE BASIS
 Al non-local projectors:
      TOTAL NUMBER OF NONLOCAL PROJECTORS = 0

 nhm = 0, not allocate some matrix. DONE : LOCAL POTENTIAL Time : 0.121297 (SEC)


 Init Non-Local PseudoPotential table : 
 Init Non-Local-Pseudopotential done.
 DONE : NON-LOCAL POTENTIAL Time : 0.121467 (SEC)

                                start_pot = atomic
 DONE : INIT POTENTIAL Time : 0.188394 (SEC)


 Make real space PAO into reciprocal space.
       max mesh points in Pseudopotential = 1601
     dq(describe PAO in reciprocal space) = 0.01
                                    max q = 764

 number of pseudo atomic orbitals for Al is 0
 DONE : INIT BASIS Time : 3.0171 (SEC)


 -------------------------------------------
 RELAX CELL : 1
 RELAX IONS : 1 (in total: 1)
 -------------------------------------------

 PW ALGORITHM --------------- ION=   1  ELEC=   1--------------------------------
  K-point    CG iter num      Time(Sec)
        1       8.050000       0.129651
        2       8.125000       0.157647
        3       8.050000       0.127836
        4       8.200000       0.128989
        5       8.025000       0.126244
        6       8.000000       0.127488
        7       7.950000       0.127476
        8       7.925000       0.153758
        9       8.200000       0.145314
       10       8.150000       0.129155
       11       8.175000       0.158134
       12       8.350000       0.131307
       13       8.325000       0.131967
       14       8.050000       0.128391
       15       7.775000       0.126552
       16       7.900000       0.128808
       17       8.650000       0.165567
       18       7.775000       0.123388
       19       8.225000       0.132491
       20       7.625000       0.146363
       21       7.950000       0.126090
       22       8.175000       0.130084
       23       8.725000       0.137174
       24       7.900000       0.125061
       25       8.250000       0.131620
       26       7.925000       0.151521
       27       7.575000       0.120922
       28       8.700000       0.144210
       29       8.600000       0.156847
       30       7.875000       0.124885
       31       7.975000       0.125841

 Density error is 1.790412018037
                          Error Threshold = 0.010000000000

       Energy                       Rydberg                            eV
   E_KohnSham              -89.298101506820            -1214.963001075140
     E_Harris              -89.415874208686            -1216.565380889366
      E_Fermi               +0.628188967951               +8.546949384873

 PW ALGORITHM --------------- ION=   1  ELEC=   2--------------------------------
  K-point    CG iter num      Time(Sec)
        1       2.125000       0.047672
        2       2.350000       0.046603
        3       2.350000       0.052551
        4       2.250000       0.065452
        5       2.200000       0.047247
        6       2.000000       0.041287
        7       2.350000       0.046992
        8       2.475000       0.048435
        9       2.125000       0.043145
       10       2.025000       0.041778
       11       2.075000       0.042353
       12       2.250000       0.044909
       13       2.375000       0.046930
       14       2.300000       0.045396
       15       2.650000       0.051786
       16       2.175000       0.044235
       17       2.475000       0.048461
       18       2.725000       0.051994
       19       2.600000       0.050240
       20       2.450000       0.062527
       21       2.675000       0.073038
       22       2.600000       0.053762
       23       2.250000       0.045011
       24       2.250000       0.044984
       25       2.550000       0.049335
       26       2.175000       0.044111
       27       2.300000       0.046202
       28       2.175000       0.064719
       29       2.075000       0.051539
       30       2.450000       0.048791
       31       2.050000       0.042032

 Density error is 1.440831739406
                          Error Threshold = 0.002841923838

       Energy                       Rydberg                            eV
   E_KohnSham              -89.317841805174            -1215.231581612976
     E_Harris              -89.492332323282            -1217.605646906215
      E_Fermi               +0.628193294781               +8.547008254411

 PW ALGORITHM --------------- ION=   1  ELEC=   3--------------------------------
  K-point    CG iter num      Time(Sec)
        1       2.275000       0.067758
        2       2.275000       0.053117
        3       2.425000       0.047898
        4       2.275000       0.045089
        5       2.275000       0.044868
        6       2.225000       0.044658
        7       2.600000       0.050947
        8       2.775000       0.058973
        9       2.425000       0.069809
       10       2.300000       0.047987
       11       2.325000       0.045740
       12       2.275000       0.045140
       13       2.275000       0.045430
       14       2.300000       0.045703
       15       2.850000       0.055395
       16       2.800000       0.054234
       17       2.350000       0.046808
       18       2.700000       0.051885
       19       2.650000       0.051267
       20       2.775000       0.066604
       21       2.600000       0.050265
       22       2.925000       0.056665
       23       2.275000       0.045641
       24       2.275000       0.065580
       25       2.625000       0.060619
       26       2.450000       0.048027
       27       2.200000       0.044306
       28       2.300000       0.045367
       29       2.275000       0.045185
       30       2.725000       0.052362
       31       2.250000       0.047079

 Density error is 12.228009702049
                          Error Threshold = 0.002287034507

       Energy                       Rydberg                            eV
   E_KohnSham              -88.738671507502            -1207.351565452282
     E_Harris              -89.482371365105            -1217.470121117472
      E_Fermi               +0.613089673667               +8.341512946833

 PW ALGORITHM --------------- ION=   1  ELEC=   4--------------------------------
  K-point    CG iter num      Time(Sec)
        1       3.150000       0.058779
        2       4.600000       0.082131
        3       5.325000       0.119868
        4       5.100000       0.087638
        5       4.975000       0.085729
        6       4.950000       0.087992
        7       4.450000       0.095513
        8       5.100000       0.126494
        9       5.925000       0.129375
       10       5.525000       0.094175
       11       5.050000       0.087267
       12       5.100000       0.088035
       13       5.650000       0.096559
       14       6.000000       0.102209
       15       5.575000       0.118534
       16       4.800000       0.098983
       17       6.000000       0.101932
       18       7.725000       0.135553
       19       8.525000       0.150399
       20       7.725000       0.125110
       21       7.725000       0.125457
       22       7.700000       0.127190
       23       5.075000       0.087759
       24       5.625000       0.096340
       25       7.600000       0.150528
       26       8.025000       0.128514
       27       8.025000       0.130098
       28       4.875000       0.100655
       29       5.100000       0.099478
       30       7.500000       0.122974
       31       4.775000       0.092942

 Density error is 476.698218326428
                          Error Threshold = 0.002287034507

       Energy                       Rydberg                            eV
   E_KohnSham              -87.094146552208            -1184.976655557077
     E_Harris              -91.269144962314            -1241.780423075463
      E_Fermi               +0.599431467260               +8.155683515237

 PW ALGORITHM --------------- ION=   1  ELEC=   5--------------------------------
  K-point    CG iter num      Time(Sec)
        1       2.325000       0.046333
        2       4.175000       0.075442
        3       4.600000       0.081285
        4       5.150000       0.116883
        5       4.550000       0.078839
        6       4.450000       0.079263
        7       3.575000       0.066455
        8       4.025000       0.073229
        9       5.425000       0.107200
       10       4.550000       0.079580
       11       4.950000       0.085738
       12       4.750000       0.082280
       13       4.850000       0.108716
       14       6.325000       0.108929
       15       3.975000       0.072560
       16       4.125000       0.074269
       17       6.275000       0.124224
       18       6.500000       0.118700
       19       7.700000       0.128414
       20       6.725000       0.112763
       21       7.300000       0.119311
       22       6.425000       0.109239
       23       5.000000       0.086812
       24       4.900000       0.095201
       25       7.675000       0.143109
       26       7.700000       0.125675
       27       7.500000       0.134780
       28       4.525000       0.097627
       29       4.650000       0.080971
       30       6.400000       0.107504
       31       4.325000       0.076405

 Density error is 11.010546037714
                          Error Threshold = 0.002287034507

       Energy                       Rydberg                            eV
   E_KohnSham              -89.316758848859            -1215.216847236410
     E_Harris              -89.455523628614            -1217.104838922789
      E_Fermi               +0.618517998012               +8.415369088516

 PW ALGORITHM --------------- ION=   1  ELEC=   6--------------------------------
  K-point    CG iter num      Time(Sec)
        1       2.000000       0.042066
        2       2.050000       0.041680
        3       2.000000       0.041055
        4       2.150000       0.044276
        5       2.000000       0.060679
        6       2.100000       0.052035
        7       2.000000       0.041716
        8       2.050000       0.042221
        9       2.075000       0.042363
       10       2.125000       0.042563
       11       2.100000       0.042615
       12       2.050000       0.041489
       13       2.050000       0.042133
       14       2.150000       0.043211
       15       2.100000       0.043088
       16       2.200000       0.044326
       17       2.200000       0.043883
       18       2.350000       0.046486
       19       2.350000       0.046349
       20       2.100000       0.043121
       21       2.275000       0.045368
       22       2.225000       0.053090
       23       2.075000       0.061261
       24       2.125000       0.044196
       25       2.325000       0.045925
       26       2.125000       0.042589
       27       2.125000       0.047829
       28       2.050000       0.042088
       29       2.050000       0.041711
       30       2.000000       0.041132
       31       2.150000       0.060490

 Density error is 0.256308989175
                          Error Threshold = 0.002287034507

       Energy                       Rydberg                            eV
   E_KohnSham              -89.396730343696            -1216.304915243759
     E_Harris              -89.397531731060            -1216.315818678217
      E_Fermi               +0.624388411633               +8.495240163379

 PW ALGORITHM --------------- ION=   1  ELEC=   7--------------------------------
  K-point    CG iter num      Time(Sec)
        1       2.500000       0.048869
        2       2.825000       0.054343
        3       3.025000       0.073960
        4       2.325000       0.058270
        5       2.250000       0.047845
        6       2.225000       0.045926
        7       2.950000       0.056255
        8       3.125000       0.059188
        9       3.825000       0.069558
       10       3.300000       0.084733
       11       2.250000       0.051011
       12       2.775000       0.053436
       13       3.175000       0.059989
       14       2.650000       0.051122
       15       2.850000       0.055076
       16       2.425000       0.048039
       17       2.425000       0.047538
       18       3.400000       0.062781
       19       3.175000       0.058860
       20       3.850000       0.069367
       21       3.175000       0.059625
       22       4.150000       0.074901
       23       2.375000       0.054781
       24       3.050000       0.078139
       25       3.100000       0.057863
       26       2.575000       0.049415
       27       2.450000       0.047984
       28       2.350000       0.046480
       29       2.625000       0.050391
       30       3.550000       0.075135
       31       2.425000       0.066299

 Density error is 0.169395740402
                          Error Threshold = 0.000406839665

       Energy                       Rydberg                            eV
   E_KohnSham              -89.416907376804            -1216.579437862774
     E_Harris              -89.416755353162            -1216.577369475002
      E_Fermi               +0.620743294247               +8.445645797049

 PW ALGORITHM --------------- ION=   1  ELEC=   8--------------------------------
  K-point    CG iter num      Time(Sec)
        1       2.000000       0.047641
        2       2.000000       0.041002
        3       2.000000       0.056558
        4       2.000000       0.054955
        5       2.000000       0.040951
        6       2.000000       0.041290
        7       2.000000       0.041971
        8       2.000000       0.041439
        9       2.000000       0.040879
       10       2.000000       0.041092
       11       2.000000       0.041179
       12       2.000000       0.057897
       13       2.000000       0.054812
       14       2.000000       0.041267
       15       2.000000       0.041579
       16       2.000000       0.041016
       17       2.000000       0.041167
       18       2.000000       0.040786
       19       2.000000       0.041021
       20       2.000000       0.041003
       21       2.000000       0.041231
       22       2.000000       0.041134
       23       2.000000       0.041244
       24       2.000000       0.055649
       25       2.000000       0.042768
       26       2.000000       0.040754
       27       2.000000       0.041388
       28       2.000000       0.040892
       29       2.000000       0.040990
       30       2.000000       0.052109
       31       2.000000       0.058708

 Density error is 0.134277650808
                          Error Threshold = 0.000268882128

       Energy                       Rydberg                            eV
   E_KohnSham              -89.426265085095            -1216.706756015751
     E_Harris              -89.420082749953            -1216.622641030875
      E_Fermi               +0.620657815272               +8.444482795935

 PW ALGORITHM --------------- ION=   1  ELEC=   9--------------------------------
  K-point    CG iter num      Time(Sec)
        1       2.400000       0.047319
        2       2.800000       0.053639
        3       2.775000       0.053294
        4       2.425000       0.047493
        5       2.400000       0.047368
        6       2.400000       0.047489
        7       2.800000       0.053969
        8       2.875000       0.055172
        9       2.825000       0.065280
       10       2.525000       0.076333
       11       2.400000       0.068596
       12       2.400000       0.066550
       13       2.475000       0.048767
       14       2.650000       0.051308
       15       2.875000       0.055690
       16       2.775000       0.067977
       17       2.650000       0.067145
       18       3.700000       0.067061
       19       3.350000       0.061452
       20       3.600000       0.065821
       21       3.275000       0.065159
       22       3.850000       0.096502
       23       2.450000       0.064708
       24       2.475000       0.067897
       25       3.375000       0.066452
       26       2.950000       0.055125
       27       2.925000       0.055785
       28       2.400000       0.060068
       29       2.400000       0.064356
       30       3.650000       0.066673
       31       2.400000       0.046982

 Density error is 3.096635681954
                          Error Threshold = 0.000213139128

       Energy                       Rydberg                            eV
   E_KohnSham              -89.551241366786            -1218.407145561603
     E_Harris              -89.475258922091            -1217.373351365781
      E_Fermi               +0.612394490902               +8.332054500070

 PW ALGORITHM --------------- ION=   1  ELEC=  10--------------------------------
  K-point    CG iter num      Time(Sec)
        1       2.175000       0.044018
        2       2.500000       0.048374
        3       2.750000       0.052765
        4       2.600000       0.050126
        5       2.475000       0.048205
        6       2.400000       0.047674
        7       2.425000       0.068810
        8       4.175000       0.081216
        9       2.800000       0.053691
       10       2.475000       0.048512
       11       2.400000       0.046815
       12       2.400000       0.047042
       13       2.475000       0.049054
       14       2.825000       0.076193
       15       4.175000       0.087227
       16       2.850000       0.054839
       17       2.825000       0.054339
       18       3.350000       0.061780
       19       3.300000       0.060999
       20       2.825000       0.053614
       21       3.275000       0.060895
       22       3.350000       0.063005
       23       2.625000       0.050784
       24       2.475000       0.048631
       25       3.250000       0.060015
       26       3.000000       0.056088
       27       3.000000       0.074763
       28       2.450000       0.056538
       29       2.400000       0.047627
       30       2.925000       0.055468
       31       2.400000       0.047279

 Density error is 11.920580238026
                          Error Threshold = 0.000213139128

       Energy                       Rydberg                            eV
   E_KohnSham              -89.443344019171            -1216.939126834943
     E_Harris              -89.594173742513            -1218.991270500162
      E_Fermi               +0.609149666972               +8.287906405619

 PW ALGORITHM --------------- ION=   1  ELEC=  11--------------------------------
  K-point    CG iter num      Time(Sec)
        1       2.125000       0.061905
        2       2.250000       0.064156
        3       2.700000       0.073888
        4       2.525000       0.072976
        5       2.450000       0.071310
        6       2.425000       0.066792
        7       2.325000       0.065504
        8       2.600000       0.074781
        9       2.600000       0.071850
       10       2.400000       0.070119
       11       2.400000       0.067168
       12       2.425000       0.071068
       13       2.400000       0.066972
       14       2.625000       0.071586
       15       2.550000       0.071943
       16       2.775000       0.074951
       17       2.625000       0.071736
       18       3.325000       0.086777
       19       3.050000       0.082983
       20       2.675000       0.076158
       21       2.975000       0.084848
       22       3.325000       0.086303
       23       2.500000       0.075288
       24       2.500000       0.077554
       25       3.000000       0.089983
       26       2.900000       0.085462
       27       2.875000       0.084825
       28       2.425000       0.070979
       29       2.475000       0.072256
       30       2.650000       0.080708
       31       2.450000       0.065983

 Density error is 6.490841737010
                          Error Threshold = 0.000213139128

       Energy                       Rydberg                            eV
   E_KohnSham              -89.381124537930            -1216.092587363471
     E_Harris              -89.478422782910            -1217.416397900593
      E_Fermi               +0.616563832756               +8.388781306203

 PW ALGORITHM --------------- ION=   1  ELEC=  12--------------------------------
  K-point    CG iter num      Time(Sec)
        1       2.300000       0.056663
        2       2.750000       0.053580
        3       2.800000       0.053928
        4       2.475000       0.048326
        5       2.400000       0.047106
        6       2.400000       0.047258
        7       2.825000       0.054042
        8       3.350000       0.062314
        9       2.550000       0.049734
       10       2.400000       0.047417
       11       2.400000       0.047520
       12       2.400000       0.046967
       13       2.425000       0.047420
       14       2.525000       0.048862
       15       3.325000       0.072658
       16       2.775000       0.068988
       17       2.550000       0.049434
       18       3.875000       0.069395
       19       3.175000       0.059143
       20       3.325000       0.061435
       21       3.250000       0.061814
       22       3.900000       0.096456
       23       2.475000       0.049357
       24       2.375000       0.046671
       25       3.325000       0.061364
       26       2.875000       0.054506
       27       2.850000       0.054544
       28       2.400000       0.047422
       29       2.400000       0.046958
       30       3.375000       0.063179
       31       2.400000       0.046749

 Density error is 0.147813686431
                          Error Threshold = 0.000213139128

       Energy                       Rydberg                            eV
   E_KohnSham              -89.418395423830            -1216.599683781218
     E_Harris              -89.421400277083            -1216.640566907114
      E_Fermi               +0.620051281129               +8.436230475557

 PW ALGORITHM --------------- ION=   1  ELEC=  13--------------------------------
  K-point    CG iter num      Time(Sec)
        1       2.000000       0.058719
        2       2.000000       0.044759
        3       2.000000       0.040876
        4       2.000000       0.040989
        5       2.000000       0.040544
        6       2.000000       0.041422
        7       2.000000       0.041426
        8       2.000000       0.041408
        9       2.000000       0.041150
       10       2.000000       0.040730
       11       2.000000       0.041100
       12       2.000000       0.054866
       13       2.000000       0.049865
       14       2.000000       0.041700
       15       2.000000       0.041220
       16       2.000000       0.041274
       17       2.000000       0.040868
       18       2.000000       0.044047
       19       2.000000       0.059015
       20       2.000000       0.047921
       21       2.000000       0.041161
       22       2.000000       0.041137
       23       2.000000       0.041233
       24       2.000000       0.040803
       25       2.000000       0.041282
       26       2.000000       0.040733
       27       2.000000       0.043323
       28       2.000000       0.058727
       29       2.000000       0.049441
       30       2.000000       0.041298
       31       2.000000       0.040797

 Density error is 0.036176839224
                          Error Threshold = 0.000213139128

       Energy                       Rydberg                            eV
   E_KohnSham              -89.420993793254            -1216.635036410888
     E_Harris              -89.420533895084            -1216.628779175272
      E_Fermi               +0.620323742300               +8.439937499959

 PW ALGORITHM --------------- ION=   1  ELEC=  14--------------------------------
  K-point    CG iter num      Time(Sec)
        1       2.375000       0.062821
        2       2.500000       0.048948
        3       2.200000       0.044036
        4       2.300000       0.045074
        5       2.100000       0.042277
        6       2.100000       0.042503
        7       2.550000       0.050119
        8       2.750000       0.062248
        9       2.400000       0.064310
       10       2.200000       0.044167
       11       2.150000       0.043091
       12       2.200000       0.043915
       13       2.200000       0.044087
       14       2.400000       0.047087
       15       2.800000       0.054142
       16       2.250000       0.045488
       17       2.350000       0.046071
       18       2.375000       0.046826
       19       2.275000       0.045182
       20       2.600000       0.049963
       21       2.275000       0.045787
       22       2.425000       0.048058
       23       2.250000       0.044639
       24       2.150000       0.043218
       25       2.250000       0.058725
       26       2.350000       0.059118
       27       2.400000       0.047362
       28       2.150000       0.043142
       29       2.100000       0.042480
       30       2.650000       0.051280
       31       2.000000       0.041420

 Density error is 0.510673580295
                          Error Threshold = 0.000057423554

       Energy                       Rydberg                            eV
   E_KohnSham              -89.416316408133            -1216.571397321502
     E_Harris              -89.424756516365            -1216.686230885199
      E_Fermi               +0.619417799810               +8.427611520042

 PW ALGORITHM --------------- ION=   1  ELEC=  15--------------------------------
  K-point    CG iter num      Time(Sec)
        1       2.100000       0.042950
        2       2.625000       0.050921
        3       2.350000       0.046914
        4       2.250000       0.044486
        5       2.300000       0.047391
        6       2.300000       0.065518
        7       2.575000       0.056282
        8       3.425000       0.063677
        9       2.275000       0.045446
       10       2.275000       0.045371
       11       2.325000       0.046069
       12       2.325000       0.045721
       13       2.250000       0.055283
       14       2.250000       0.062358
       15       3.500000       0.065817
       16       2.300000       0.046354
       17       2.300000       0.061617
       18       3.075000       0.057969
       19       2.650000       0.051095
       20       2.825000       0.053960
       21       2.700000       0.051942
       22       3.025000       0.057400
       23       2.275000       0.045670
       24       2.200000       0.044084
       25       2.725000       0.052035
       26       2.350000       0.046614
       27       2.350000       0.046557
       28       2.300000       0.056510
       29       2.350000       0.062821
       30       2.825000       0.054129
       31       2.300000       0.046052

 Density error is 0.847848137307
                          Error Threshold = 0.000057423554

       Energy                       Rydberg                            eV
   E_KohnSham              -89.419487438025            -1216.614541396565
     E_Harris              -89.424857326666            -1216.687602479709
      E_Fermi               +0.619470482873               +8.428328309891

 PW ALGORITHM --------------- ION=   1  ELEC=  16--------------------------------
  K-point    CG iter num      Time(Sec)
        1       3.500000       0.064014
        2       2.200000       0.044354
        3       2.000000       0.040735
        4       2.000000       0.040899
        5       2.000000       0.040597
        6       2.000000       0.041243
        7       2.250000       0.045486
        8       3.200000       0.068777
        9       2.025000       0.057568
       10       2.000000       0.043671
       11       2.000000       0.040817
       12       2.050000       0.041811
       13       2.000000       0.040851
       14       2.025000       0.041540
       15       3.175000       0.060058
       16       2.000000       0.041593
       17       2.000000       0.057536
       18       2.225000       0.056851
       19       2.175000       0.043672
       20       2.200000       0.044101
       21       2.100000       0.042597
       22       2.075000       0.042268
       23       2.000000       0.041239
       24       2.000000       0.041211
       25       2.050000       0.041842
       26       2.100000       0.042247
       27       2.100000       0.042860
       28       2.000000       0.040858
       29       2.050000       0.041763
       30       2.200000       0.044388
       31       2.000000       0.040738

 Density error is 0.058151981369
                          Error Threshold = 0.000057423554

       Energy                       Rydberg                            eV
   E_KohnSham              -89.421696823966            -1216.644601634439
     E_Harris              -89.421944853565            -1216.647976250257
      E_Fermi               +0.620092973262               +8.436797726125

 PW ALGORITHM --------------- ION=   1  ELEC=  17--------------------------------
  K-point    CG iter num      Time(Sec)
        1       2.000000       0.041441
        2       2.000000       0.041002
        3       2.000000       0.041105
        4       2.000000       0.040720
        5       2.000000       0.041523
        6       2.000000       0.041487
        7       2.000000       0.041602
        8       2.000000       0.041114
        9       2.000000       0.041183
       10       2.000000       0.040837
       11       2.000000       0.041194
       12       2.000000       0.040785
       13       2.000000       0.041162
       14       2.000000       0.040844
       15       2.000000       0.041508
       16       2.000000       0.048558
       17       2.000000       0.056882
       18       2.000000       0.055232
       19       2.000000       0.041448
       20       2.000000       0.040804
       21       2.000000       0.041284
       22       2.000000       0.041169
       23       2.000000       0.044167
       24       2.000000       0.040964
       25       2.000000       0.041353
       26       2.000000       0.054978
       27       2.000000       0.055463
       28       2.000000       0.041193
       29       2.000000       0.040831
       30       2.000000       0.041157
       31       2.000000       0.040820

 Density error is 0.021925791679
                          Error Threshold = 0.000057423554

       Energy                       Rydberg                            eV
   E_KohnSham              -89.421785829209            -1216.645812612892
     E_Harris              -89.421929252291            -1216.647763984041
      E_Fermi               +0.620125681245               +8.437242741064

 PW ALGORITHM --------------- ION=   1  ELEC=  18--------------------------------
  K-point    CG iter num      Time(Sec)
        1       2.000000       0.041672
        2       2.000000       0.041000
        3       2.000000       0.041114
        4       2.000000       0.040757
        5       2.000000       0.040873
        6       2.000000       0.041015
        7       2.000000       0.041568
        8       2.000000       0.053043
        9       2.000000       0.055807
       10       2.000000       0.041479
       11       2.000000       0.040902
       12       2.000000       0.041150
       13       2.000000       0.040906
       14       2.000000       0.041221
       15       2.000000       0.041259
       16       2.000000       0.041529
       17       2.000000       0.040951
       18       2.000000       0.041177
       19       2.175000       0.043435
       20       2.000000       0.041020
       21       2.175000       0.043453
       22       2.000000       0.041409
       23       2.000000       0.040911
       24       2.000000       0.041169
       25       2.175000       0.043487
       26       2.000000       0.041847
       27       2.000000       0.060092
       28       2.000000       0.049562
       29       2.000000       0.040850
       30       2.000000       0.041414
       31       2.000000       0.040919

 Density error is 0.005818058640
                          Error Threshold = 0.000034802844

       Energy                       Rydberg                            eV
   E_KohnSham              -89.421870284677            -1216.646961688495
     E_Harris              -89.421950013606            -1216.648046456218
      E_Fermi               +0.620126437299               +8.437253027702

 PW ALGORITHM --------------- ION=   1  ELEC=  19--------------------------------
  K-point    CG iter num      Time(Sec)
        1       3.575000       0.065163
        2       2.675000       0.052322
        3       2.500000       0.048701
        4       2.375000       0.046632
        5       2.325000       0.045691
        6       2.300000       0.052972
        7       2.700000       0.071909
        8       3.925000       0.075435
        9       2.325000       0.048586
       10       2.325000       0.046054
       11       2.325000       0.046031
       12       2.275000       0.044854
       13       2.325000       0.046175
       14       2.300000       0.066055
       15       3.850000       0.078888
       16       2.500000       0.049126
       17       2.350000       0.046595
       18       2.800000       0.053318
       19       2.575000       0.049932
       20       2.900000       0.054982
       21       2.650000       0.050896
       22       2.925000       0.056314
       23       2.350000       0.046463
       24       2.350000       0.046529
       25       2.650000       0.051616
       26       2.100000       0.043160
       27       2.150000       0.043769
       28       2.300000       0.045380
       29       2.250000       0.058943
       30       2.775000       0.066902
       31       2.300000       0.045689

 Density error is 0.009065016852
                          Error Threshold = 0.000009235014

       Energy                       Rydberg                            eV
   E_KohnSham              -89.422166423728            -1216.650990866983
     E_Harris              -89.422245732399            -1216.652069916814
      E_Fermi               +0.620039547424               +8.436070830304

 PW ALGORITHM --------------- ION=   1  ELEC=  20--------------------------------
  K-point    CG iter num      Time(Sec)
        1       2.475000       0.049255
        2       2.000000       0.041922
        3       2.000000       0.040792
        4       2.000000       0.040960
        5       2.000000       0.040560
        6       2.000000       0.041295
        7       2.000000       0.043632
        8       2.000000       0.041386
        9       2.000000       0.040785
       10       2.000000       0.053246
       11       2.000000       0.056180
       12       2.000000       0.041089
       13       2.000000       0.041209
       14       2.000000       0.040843
       15       2.000000       0.041449
       16       2.000000       0.040964
       17       2.000000       0.041128
       18       2.000000       0.041037
       19       2.000000       0.053269
       20       2.000000       0.056553
       21       2.000000       0.041304
       22       2.000000       0.041663
       23       2.000000       0.040981
       24       2.000000       0.041189
       25       2.000000       0.040784
       26       2.000000       0.041041
       27       2.050000       0.041872
       28       2.000000       0.041216
       29       2.000000       0.041267
       30       2.000000       0.041309
       31       2.000000       0.040883

 Density error is 0.000428944126
                          Error Threshold = 0.000009235014

       Energy                       Rydberg                            eV
   E_KohnSham              -89.422160365147            -1216.650908435763
     E_Harris              -89.422219690752            -1216.651715602018
      E_Fermi               +0.620048849720               +8.436197394532

 PW ALGORITHM --------------- ION=   1  ELEC=  21--------------------------------
  K-point    CG iter num      Time(Sec)
        1       2.650000       0.070481
        2       3.225000       0.069861
        3       3.050000       0.057233
        4       2.700000       0.053850
        5       2.800000       0.053078
        6       2.825000       0.054445
        7       3.175000       0.059991
        8       4.475000       0.079854
        9       3.000000       0.056170
       10       2.900000       0.055214
       11       2.800000       0.053503
       12       2.700000       0.052861
       13       2.825000       0.054062
       14       2.950000       0.064763
       15       4.600000       0.099717
       16       3.200000       0.060355
       17       2.950000       0.055707
       18       4.525000       0.079533
       19       3.675000       0.066218
       20       3.975000       0.100759
       21       3.750000       0.069628
       22       4.275000       0.076421
       23       2.700000       0.051801
       24       2.900000       0.054865
       25       3.875000       0.069712
       26       3.275000       0.059501
       27       3.350000       0.061865
       28       2.725000       0.052209
       29       2.750000       0.052546
       30       3.850000       0.069869
       31       2.825000       0.053879

 Density error is 0.003526097162
                          Error Threshold = 0.000000680864

       Energy                       Rydberg                            eV
   E_KohnSham              -89.422241610631            -1216.652013837276
     E_Harris              -89.422317542873            -1216.653046948434
      E_Fermi               +0.620035081316               +8.436010065793

 PW ALGORITHM --------------- ION=   1  ELEC=  22--------------------------------
  K-point    CG iter num      Time(Sec)
        1       2.000000       0.041471
        2       2.625000       0.050939
        3       2.350000       0.046762
        4       2.325000       0.045526
        5       2.250000       0.044576
        6       2.275000       0.045424
        7       2.625000       0.051835
        8       2.850000       0.055031
        9       2.375000       0.046984
       10       2.200000       0.044146
       11       2.275000       0.045704
       12       2.300000       0.046918
       13       2.325000       0.065843
       14       2.425000       0.054139
       15       2.800000       0.054546
       16       2.350000       0.046831
       17       2.325000       0.045786
       18       2.825000       0.053397
       19       2.750000       0.053134
       20       2.925000       0.070530
       21       2.725000       0.064581
       22       2.825000       0.053960
       23       2.225000       0.044879
       24       2.275000       0.045169
       25       2.650000       0.050534
       26       2.500000       0.048778
       27       2.450000       0.047931
       28       2.200000       0.043924
       29       2.325000       0.045785
       30       2.925000       0.055194
       31       2.275000       0.045348

 Density error is 0.003498753788
                          Error Threshold = 0.000000680864

       Energy                       Rydberg                            eV
   E_KohnSham              -89.422226564958            -1216.651809130399
     E_Harris              -89.422276823038            -1216.652492926660
      E_Fermi               +0.620040971442               +8.436090205069

 PW ALGORITHM --------------- ION=   1  ELEC=  23--------------------------------
  K-point    CG iter num      Time(Sec)
        1       2.100000       0.043158
        2       2.600000       0.050474
        3       2.425000       0.048127
        4       2.225000       0.044283
        5       2.175000       0.043429
        6       2.150000       0.059190
        7       2.650000       0.070321
        8       2.975000       0.081362
        9       2.350000       0.066990
       10       2.350000       0.046546
       11       2.150000       0.043013
       12       2.100000       0.042589
       13       2.200000       0.054374
       14       2.275000       0.061358
       15       2.975000       0.056708
       16       2.525000       0.062035
       17       2.350000       0.048431
       18       3.000000       0.056192
       19       2.800000       0.053792
       20       2.775000       0.072442
       21       2.850000       0.075342
       22       3.025000       0.077497
       23       2.300000       0.065164
       24       2.225000       0.044453
       25       2.825000       0.053405
       26       2.500000       0.048397
       27       2.375000       0.046601
       28       2.225000       0.044473
       29       2.075000       0.041766
       30       2.775000       0.052947
       31       2.200000       0.044223

 Density error is 0.000944790088
                          Error Threshold = 0.000000680864

       Energy                       Rydberg                            eV
   E_KohnSham              -89.422259044551            -1216.652251037935
     E_Harris              -89.422282012836            -1216.652563537473
      E_Fermi               +0.620040392822               +8.436082332531

 PW ALGORITHM --------------- ION=   1  ELEC=  24--------------------------------
  K-point    CG iter num      Time(Sec)
        1       2.000000       0.041614
        2       2.000000       0.040895
        3       2.000000       0.040978
        4       2.000000       0.040659
        5       2.000000       0.040785
        6       2.000000       0.040929
        7       2.000000       0.041297
        8       2.150000       0.043656
        9       2.000000       0.041118
       10       2.000000       0.040791
       11       2.000000       0.041071
       12       2.000000       0.040711
       13       2.000000       0.040730
       14       2.000000       0.041142
       15       2.275000       0.045548
       16       2.000000       0.041174
       17       2.000000       0.041200
       18       2.000000       0.059010
       19       2.050000       0.051242
       20       2.050000       0.042179
       21       2.050000       0.052958
       22       2.000000       0.046004
       23       2.000000       0.040824
       24       2.000000       0.040998
       25       2.000000       0.040676
       26       2.000000       0.048165
       27       2.000000       0.057578
       28       2.000000       0.044795
       29       2.000000       0.041087
       30       2.150000       0.043083
       31       2.000000       0.040942

 Density error is 0.000110534169
                          Error Threshold = 0.000000680864

       Energy                       Rydberg                            eV
   E_KohnSham              -89.422249866529            -1216.652126164541
     E_Harris              -89.422266700781            -1216.652355206284
      E_Fermi               +0.620043734426               +8.436127797399

 PW ALGORITHM --------------- ION=   1  ELEC=  25--------------------------------
  K-point    CG iter num      Time(Sec)
        1       2.175000       0.045297
        2       2.975000       0.056273
        3       2.775000       0.053329
        4       2.550000       0.049308
        5       2.500000       0.047741
        6       2.475000       0.048334
        7       3.025000       0.071360
        8       3.225000       0.073606
        9       2.650000       0.050826
       10       2.550000       0.057822
       11       2.500000       0.048877
       12       2.450000       0.047390
       13       2.500000       0.048507
       14       2.650000       0.050930
       15       3.275000       0.061718
       16       2.775000       0.053065
       17       2.675000       0.051528
       18       3.400000       0.062296
       19       3.250000       0.059952
       20       3.400000       0.062573
       21       3.150000       0.073253
       22       3.375000       0.073707
       23       2.550000       0.049169
       24       2.525000       0.048675
       25       3.250000       0.059946
       26       2.800000       0.052757
       27       2.800000       0.053345
       28       2.575000       0.066792
       29       2.425000       0.057796
       30       3.400000       0.063407
       31       2.575000       0.049541

 Density error is 0.000186766610
                          Error Threshold = 0.000000175451

       Energy                       Rydberg                            eV
   E_KohnSham              -89.422262324368            -1216.652295662133
     E_Harris              -89.422272673708            -1216.652436472124
      E_Fermi               +0.620042062146               +8.436105044850

 PW ALGORITHM --------------- ION=   1  ELEC=  26--------------------------------
  K-point    CG iter num      Time(Sec)
        1       2.050000       0.050130
        2       2.400000       0.047784
        3       2.050000       0.041847
        4       2.025000       0.041055
        5       2.000000       0.040859
        6       2.000000       0.040925
        7       2.225000       0.045171
        8       2.725000       0.057022
        9       2.000000       0.057774
       10       2.000000       0.047728
       11       2.000000       0.040809
       12       2.000000       0.040812
       13       2.000000       0.041305
       14       2.025000       0.041211
       15       2.675000       0.052382
       16       2.025000       0.041697
       17       2.025000       0.041674
       18       2.350000       0.045942
       19       2.225000       0.044424
       20       2.400000       0.047059
       21       2.325000       0.046095
       22       2.300000       0.045717
       23       2.000000       0.041224
       24       2.000000       0.040760
       25       2.300000       0.045519
       26       2.050000       0.051971
       27       2.000000       0.056749
       28       2.000000       0.042202
       29       2.000000       0.041161
       30       2.175000       0.043560
       31       2.000000       0.041073

 Density error is 0.000158020280
                          Error Threshold = 0.000000175451

       Energy                       Rydberg                            eV
   E_KohnSham              -89.422259986603            -1216.652263855199
     E_Harris              -89.422268069662            -1216.652373830858
      E_Fermi               +0.620043359662               +8.436122698463

 PW ALGORITHM --------------- ION=   1  ELEC=  27--------------------------------
  K-point    CG iter num      Time(Sec)
        1       2.000000       0.041372
        2       2.575000       0.049876
        3       2.300000       0.046162
        4       2.200000       0.043609
        5       2.125000       0.042682
        6       2.075000       0.042468
        7       2.525000       0.056973
        8       2.700000       0.070624
        9       2.250000       0.044860
       10       2.075000       0.041933
       11       2.050000       0.041875
       12       2.050000       0.041847
       13       2.150000       0.042969
       14       2.200000       0.044327
       15       2.675000       0.053868
       16       2.250000       0.064338
       17       2.200000       0.049974
       18       2.600000       0.050331
       19       2.375000       0.046603
       20       2.800000       0.053226
       21       2.425000       0.047545
       22       2.600000       0.050379
       23       2.200000       0.044495
       24       2.125000       0.042676
       25       2.400000       0.046977
       26       2.100000       0.042507
       27       2.175000       0.043504
       28       2.100000       0.042837
       29       2.050000       0.041459
       30       2.925000       0.055579
       31       2.025000       0.041313

 Density error is 0.000070433770
                          Error Threshold = 0.000000175451

       Energy                       Rydberg                            eV
   E_KohnSham              -89.422266108880            -1216.652347153055
     E_Harris              -89.422267897288            -1216.652371485593
      E_Fermi               +0.620043026657               +8.436118167702

 PW ALGORITHM --------------- ION=   1  ELEC=  28--------------------------------
  K-point    CG iter num      Time(Sec)
        1       2.000000       0.041598
        2       2.000000       0.040955
        3       2.000000       0.041254
        4       2.000000       0.040668
        5       2.000000       0.040887
        6       2.000000       0.041057
        7       2.000000       0.041395
        8       2.000000       0.041066
        9       2.000000       0.041132
       10       2.000000       0.040848
       11       2.000000       0.041100
       12       2.000000       0.041059
       13       2.000000       0.041273
       14       2.000000       0.050950
       15       2.025000       0.057383
       16       2.000000       0.042207
       17       2.000000       0.040892
       18       2.000000       0.041100
       19       2.000000       0.040809
       20       2.000000       0.040959
       21       2.000000       0.040675
       22       2.000000       0.041698
       23       2.000000       0.049802
       24       2.000000       0.056522
       25       2.000000       0.044315
       26       2.000000       0.040847
       27       2.000000       0.041407
       28       2.000000       0.040990
       29       2.000000       0.041651
       30       2.000000       0.040989
       31       2.000000       0.041097

 Density error is 0.000042751084
                          Error Threshold = 0.000000111800

       Energy                       Rydberg                            eV
   E_KohnSham              -89.422263137681            -1216.652306727826
     E_Harris              -89.422267548322            -1216.652366737666
      E_Fermi               +0.620043315465               +8.436122097130

 PW ALGORITHM --------------- ION=   1  ELEC=  29--------------------------------
  K-point    CG iter num      Time(Sec)
        1       2.200000       0.044403
        2       2.750000       0.052922
        3       2.300000       0.045949
        4       2.250000       0.047455
        5       2.150000       0.062396
        6       2.100000       0.049419
        7       2.800000       0.054214
        8       3.475000       0.064772
        9       2.300000       0.045275
       10       2.150000       0.043241
       11       2.100000       0.042610
       12       2.050000       0.041740
       13       2.175000       0.043637
       14       2.300000       0.045644
       15       3.425000       0.063949
       16       2.350000       0.046652
       17       2.250000       0.044916
       18       2.700000       0.051469
       19       2.675000       0.051538
       20       3.025000       0.066407
       21       2.600000       0.067448
       22       2.950000       0.055994
       23       2.225000       0.044880
       24       2.175000       0.043608
       25       2.625000       0.050876
       26       2.150000       0.043798
       27       2.175000       0.064117
       28       2.125000       0.059831
       29       2.100000       0.060041
       30       3.025000       0.061625
       31       2.100000       0.042610

 Density error is 0.000098820201
                          Error Threshold = 0.000000067859

[...]
      29       8.677561       0.000014
      30       8.949682       0.000000
      31       9.221552       0.000000
      32       9.328348       0.000000
      33       9.340775       0.000000
      34       9.524187       0.000000
      35       9.854139       0.000000
      36      10.006124       0.000000
      37      10.136313       0.000000
      38      10.465269       0.000000
      39      10.490328       0.000000
      40      10.631952       0.000000

 24/31 kpoint (Cartesian) = 0.989949 0.408248 0.041239 (678 pws)
       1      -0.468645       0.080000
       2      -0.467778       0.080000
       3      -0.340691       0.080000
       4      -0.338896       0.080000
       5      -0.084709       0.080000
       6      -0.082009       0.080000
       7       0.299055       0.080000
       8       0.303264       0.080000
       9       0.810335       0.080000
      10       0.816611       0.080000
      11       1.448482       0.080000
      12       1.457800       0.080000
      13       2.212338       0.080000
      14       2.226478       0.080000
      15       3.099621       0.080000
      16       3.122098       0.080000
      17       4.105032       0.080000
      18       4.143785       0.080000
      19       5.212648       0.080000
      20       5.290056       0.080000
      21       6.346695       0.080000
      22       6.561593       0.080000
      23       7.021595       0.080000
      24       7.048952       0.080000
      25       7.065616       0.080000
      26       7.081247       0.080000
      27       7.190649       0.080000
      28       7.453274       0.080000
      29       7.839619       0.080000
      30       7.942025       0.080000
      31       8.191366       0.079977
      32       8.350176       0.070905
      33       8.497586       0.015517
      34       8.561997       0.003082
      35       8.984165       0.000000
      36       9.149155       0.000000
      37       9.433741       0.000000
      38       9.739100       0.000000
      39       9.756737       0.000000
      40       9.901319       0.000000

 25/31 kpoint (Cartesian) = 0.989949 0.244949 0.041239 (648 pws)
       1       1.041797       0.080000
       2       1.042669       0.080000
       3       1.169323       0.080000
       4       1.171150       0.080000
       5       1.424367       0.080000
       6       1.427186       0.080000
       7       1.806504       0.080000
       8       1.811039       0.080000
       9       2.315084       0.080000
      10       2.322177       0.080000
      11       2.948649       0.080000
      12       2.959947       0.080000
      13       3.704101       0.080000
      14       3.723161       0.080000
      15       4.573547       0.080000
      16       4.609428       0.080000
      17       5.529475       0.080000
      18       5.612450       0.080000
      19       6.049171       0.080000
      20       6.058893       0.080000
      21       6.158977       0.080000
      22       6.191747       0.080000
      23       6.361567       0.080000
      24       6.412959       0.080000
      25       6.448849       0.080000
      26       6.602688       0.080000
      27       6.727897       0.080000
      28       6.830471       0.080000
      29       7.335330       0.080000
      30       7.856138       0.080000
      31       7.865181       0.080000
      32       7.959743       0.080000
      33       8.226137       0.079873
      34       8.432672       0.041544
      35       8.516796       0.010285
      36       8.540973       0.005632
      37       8.586618       0.001381
      38       8.592961       0.001104
      39       8.675205       0.000031
      40       8.692744       0.000013

 26/31 kpoint (Cartesian) = 0.989949 0.081650 0.041239 (610 pws)
       1       3.052109       0.080000
       2       3.052829       0.080000
       3       3.179036       0.080000
       4       3.180011       0.080000
       5       3.432897       0.080000
       6       3.432969       0.080000
       7       3.812019       0.080000
       8       3.812020       0.080000
       9       4.314733       0.080000
      10       4.314793       0.080000
      11       4.935955       0.080000
      12       4.936006       0.080000
      13       5.540991       0.080000
      14       5.540996       0.080000
      15       5.553551       0.080000
      16       5.553562       0.080000
      17       5.675237       0.080000
      18       5.675263       0.080000
      19       5.687310       0.080000
      20       5.687322       0.080000
      21       5.689673       0.080000
      22       5.689674       0.080000
      23       5.915935       0.080000
      24       5.916377       0.080000
      25       5.939645       0.080000
      26       5.939651       0.080000
      27       6.230524       0.080000
      28       6.311184       0.080000
      29       6.313027       0.080000
      30       6.313027       0.080000
      31       6.457494       0.080000
      32       6.457640       0.080000
      33       6.699237       0.080000
      34       6.699514       0.080000
      35       6.803030       0.080000
      36       6.803051       0.080000
      37       6.961798       0.080000
      38       6.962026       0.080000
      39       7.389672       0.080000
      40       7.389925       0.080000

 27/31 kpoint (Cartesian) = 0.424264 0.898146 0.041239 (738 pws)
       1       3.052109       0.040000
       2       3.052829       0.040000
       3       3.179036       0.040000
       4       3.180011       0.040000
       5       3.432897       0.040000
       6       3.432969       0.040000
       7       3.812019       0.040000
       8       3.812020       0.040000
       9       4.314733       0.040000
      10       4.314793       0.040000
      11       4.935955       0.040000
      12       4.936006       0.040000
      13       5.540991       0.040000
      14       5.540996       0.040000
      15       5.553552       0.040000
      16       5.553561       0.040000
      17       5.675236       0.040000
      18       5.675264       0.040000
      19       5.687310       0.040000
      20       5.687322       0.040000
      21       5.689673       0.040000
      22       5.689675       0.040000
      23       5.915935       0.040000
      24       5.916377       0.040000
      25       5.939644       0.040000
      26       5.939651       0.040000
      27       6.230524       0.040000
      28       6.311184       0.040000
      29       6.313027       0.040000
      30       6.313027       0.040000
      31       6.457493       0.040000
      32       6.457640       0.040000
      33       6.699237       0.040000
      34       6.699514       0.040000
      35       6.803030       0.040000
      36       6.803051       0.040000
      37       6.961798       0.040000
      38       6.962027       0.040000
      39       7.389672       0.040000
      40       7.389925       0.040000

 28/31 kpoint (Cartesian) = 0.848528 0.489898 0.041239 (694 pws)
       1       0.286477       0.040000
       2       0.287709       0.040000
       3       0.413649       0.040000
       4       0.416921       0.040000
       5       0.668407       0.040000
       6       0.674049       0.040000
       7       1.050424       0.040000
       8       1.059365       0.040000
       9       1.558963       0.040000
      10       1.572632       0.040000
      11       2.192531       0.040000
      12       2.213606       0.040000
      13       2.947970       0.040000
      14       2.981883       0.040000
      15       3.817200       0.040000
      16       3.876705       0.040000
      17       4.772065       0.040000
      18       4.895248       0.040000
      19       5.297806       0.040000
      20       5.308786       0.040000
      21       5.407418       0.040000
      22       5.443478       0.040000
      23       5.605544       0.040000
      24       5.651910       0.040000
      25       5.703310       0.040000
      26       5.843695       0.040000
      27       6.051608       0.040000
      28       6.089212       0.040000
      29       6.601292       0.040000
      30       7.116314       0.040000
      31       7.239204       0.040000
      32       7.308657       0.040000
      33       7.485183       0.040000
      34       7.704178       0.040000
      35       8.002135       0.040000
      36       8.183711       0.039992
      37       8.710406       0.000002
      38       8.888523       0.000000
      39       8.951401       0.000000
      40       9.052018       0.000000

 29/31 kpoint (Cartesian) = 0.848528 0.326599 0.041239 (672 pws)
       1       1.543940       0.080000
       2       1.545649       0.080000
       3       1.669999       0.080000
       4       1.674982       0.080000
       5       1.922828       0.080000
       6       1.931818       0.080000
       7       2.301626       0.080000
       8       2.316295       0.080000
       9       2.804471       0.080000
      10       2.827868       0.080000
      11       3.426889       0.080000
      12       3.464473       0.080000
      13       4.037268       0.080000
      14       4.048113       0.080000
      15       4.156088       0.080000
      16       4.168676       0.080000
      17       4.194598       0.080000
      18       4.256422       0.080000
      19       4.408864       0.080000
      20       4.449583       0.080000
      21       4.759503       0.080000
      22       4.833512       0.080000
      23       4.938576       0.080000
      24       5.131869       0.080000
      25       5.182151       0.080000
      26       5.344475       0.080000
      27       5.438535       0.080000
      28       5.981628       0.080000
      29       6.145872       0.080000
      30       6.743763       0.080000
      31       6.819119       0.080000
      32       7.063136       0.080000
      33       7.281020       0.080000
      34       7.586459       0.080000
      35       7.628645       0.080000
      36       7.845115       0.080000
      37       8.521851       0.009140
      38       8.631443       0.000243
      39       8.783196       0.000000
      40       8.829179       0.000000

 30/31 kpoint (Cartesian) = 0.565685 0.653197 0.041239 (720 pws)
       1       3.301473       0.040000
       2       3.301474       0.040000
       3       3.303590       0.040000
       4       3.303592       0.040000
       5       3.425849       0.040000
       6       3.425855       0.040000
       7       3.432146       0.040000
       8       3.432202       0.040000
       9       3.675181       0.040000
      10       3.675188       0.040000
      11       3.685690       0.040000
      12       3.686341       0.040000
      13       4.010024       0.040000
      14       4.047127       0.040000
      15       4.047128       0.040000
      16       4.136623       0.040000
      17       4.535251       0.040000
      18       4.535273       0.040000
      19       4.586592       0.040000
      20       4.586812       0.040000
      21       5.118327       0.040000
      22       5.118585       0.040000
      23       5.218092       0.040000
      24       5.218102       0.040000
      25       5.686958       0.040000
      26       5.687093       0.040000
      27       5.972761       0.040000
      28       5.972783       0.040000
      29       6.842221       0.040000
      30       6.842224       0.040000
      31       7.314935       0.040000
      32       7.315204       0.040000
      33       7.800638       0.040000
      34       7.800653       0.040000
      35       8.133236       0.040000
      36       8.133269       0.040000
      37       8.296894       0.038990
      38       8.297608       0.038966
      39       8.417245       0.024181
      40       8.418178       0.023979

 31/31 kpoint (Cartesian) = 0.707107 0.408248 0.041239 (688 pws)
       1       2.547362       0.020000
       2       2.547363       0.020000
       3       2.550208       0.020000
       4       2.550210       0.020000
       5       2.671161       0.020000
       6       2.671167       0.020000
       7       2.679797       0.020000
       8       2.679859       0.020000
       9       2.920031       0.020000
      10       2.920038       0.020000
      11       2.934611       0.020000
      12       2.935315       0.020000
      13       3.256788       0.020000
      14       3.291560       0.020000
      15       3.291561       0.020000
      16       3.394148       0.020000
      17       3.779135       0.020000
      18       3.779157       0.020000
      19       3.843228       0.020000
      20       3.843496       0.020000
      21       4.361067       0.020000
      22       4.361326       0.020000
      23       4.480520       0.020000
      24       4.480538       0.020000
      25       4.926553       0.020000
      26       4.926687       0.020000
      27       5.245997       0.020000
      28       5.246017       0.020000
      29       6.137666       0.020000
      30       6.137669       0.020000
      31       6.573483       0.020000
      32       6.573758       0.020000
      33       7.153838       0.020000
      34       7.153851       0.020000
      35       7.394605       0.020000
      36       7.394677       0.020000
      37       8.291930       0.019572
      38       8.291947       0.019571
      39       8.487491       0.004705
      40       8.487540       0.004701




 ><><><><><><><><><><><><><><><><><><><><><><

    TOTAL-FORCE (eV/Angstrom)

 ><><><><><><><><><><><><><><><><><><><><><><

     atom              x              y              z
      Al1              0              0              0
      Al2    -0.00000131    -0.00000076    +0.00008108
      Al3              0              0    +0.00186053
      Al4              0              0    +0.00396679
      Al5    -0.00000631    -0.00000364    +0.00758348
      Al6              0              0    +0.01134314
      Al7    -0.00000117    -0.00000068    +0.01423902
      Al8    +0.00000047    +0.00000027    +0.01327078
      Al9    -0.00000228    -0.00000131    +0.01052957
     Al10    +0.00000228    +0.00000132    +0.00739356
     Al11    +0.00000046    +0.00000027    +0.00291380
     Al12    -0.00000046    -0.00000027    -0.00291380
     Al13    -0.00000228    -0.00000132    -0.00739356
     Al14    +0.00000228    +0.00000131    -0.01052957
     Al15    -0.00000047    -0.00000027    -0.01327078
     Al16    +0.00000117    +0.00000068    -0.01423902
     Al17              0              0    -0.01134314
     Al18    +0.00000631    +0.00000364    -0.00758348
     Al19              0              0    -0.00396679
     Al20              0              0    -0.00186053
     Al21    +0.00000131    +0.00000076    -0.00008108


 ><><><><><><><><><><><><><><><><><><><><><><

 TOTAL-STRESS (KBAR)

 ><><><><><><><><><><><><><><><><><><><><><><

      -11.424588      -0.000017      +0.000002
       -0.000017     -11.424569      +0.000001
       +0.000002      +0.000001     +26.620513

 Ion relaxation is not converged yet (threshold is +0.000001)

 DIRECT COORDINATES
         atom                   x                   y                   z                 mag                  vx                  vy                  vz
     taud_Al1           +0.000000           +0.000000           +0.000000           +0.000000           +0.000000           +0.000000           +0.000000
     taud_Al2           +0.333333           +0.333333           +0.047666           +0.000000           +0.000000           +0.000000           +0.000000
     taud_Al3           +0.666667           +0.666667           +0.095317           +0.000000           +0.000000           +0.000000           +0.000000
     taud_Al4           +0.000000           +0.000000           +0.142945           +0.000000           +0.000000           +0.000000           +0.000000
     taud_Al5           +0.333333           +0.333333           +0.190544           +0.000000           +0.000000           +0.000000           +0.000000
     taud_Al6           +0.666667           +0.666667           +0.238123           +0.000000           +0.000000           +0.000000           +0.000000
     taud_Al7           +0.000000           +0.000000           +0.285698           +0.000000           +0.000000           +0.000000           +0.000000
     taud_Al8           +0.333333           +0.333333           +0.333291           +0.000000           +0.000000           +0.000000           +0.000000
     taud_Al9           +0.666667           +0.666667           +0.380906           +0.000000           +0.000000           +0.000000           +0.000000
    taud_Al10           +0.000000           +0.000000           +0.428537           +0.000000           +0.000000           +0.000000           +0.000000
    taud_Al11           +0.333333           +0.333333           +0.476177           +0.000000           +0.000000           +0.000000           +0.000000
    taud_Al12           +0.666667           +0.666667           +0.523823           +0.000000           +0.000000           +0.000000           +0.000000
    taud_Al13           +0.000000           +0.000000           +0.571463           +0.000000           +0.000000           +0.000000           +0.000000
    taud_Al14           +0.333333           +0.333333           +0.619094           +0.000000           +0.000000           +0.000000           +0.000000
    taud_Al15           +0.666667           +0.666667           +0.666709           +0.000000           +0.000000           +0.000000           +0.000000
    taud_Al16           +0.000000           +0.000000           +0.714302           +0.000000           +0.000000           +0.000000           +0.000000
    taud_Al17           +0.333333           +0.333333           +0.761877           +0.000000           +0.000000           +0.000000           +0.000000
    taud_Al18           +0.666667           +0.666667           +0.809456           +0.000000           +0.000000           +0.000000           +0.000000
    taud_Al19           +0.000000           +0.000000           +0.857055           +0.000000           +0.000000           +0.000000           +0.000000
    taud_Al20           +0.333333           +0.333333           +0.904683           +0.000000           +0.000000           +0.000000           +0.000000
    taud_Al21           +0.666667           +0.666667           +0.952334           +0.000000           +0.000000           +0.000000           +0.000000

 Setup the structure factor in plane wave basis.
 Setup the extrapolated charge.
 Setup the structure factor in plane wave basis.
 Setup the Vl+Vh+Vxc according to new structure factor and new charge.
 Setup the new wave functions?

 -------------------------------------------
 RELAX CELL : 1
 RELAX IONS : 31 (in total: 31)
 -------------------------------------------

 PW ALGORITHM --------------- ION= +31  ELEC=  +1--------------------------------
  K-point    CG iter num      Time(Sec)
       +1     +31.675000      +0.475455
       +2     +43.000000      +0.669822
       +3     +44.525000      +0.723046
       +4     +50.125000      +0.740723
       +5     +51.600000      +0.776450
       +6     +50.250000      +0.749001
       +7     +40.200000      +0.628096
       +8     +44.300000      +0.713645
       +9     +47.150000      +0.710881
      +10     +51.550000      +0.792509
      +11     +51.650000      +0.792478
      +12     +53.525000      +0.821210
      +13     +51.775000      +0.799536
      +14     +47.125000      +0.714856
      +15     +42.975000      +0.673799
      +16     +47.225000      +0.749720
      +17     +47.550000      +0.725774
      +18     +48.200000      +0.732773
      +19     +57.600000      +0.889560
      +20     +55.775000      +0.828608
      +21     +56.400000      +0.839020
      +22     +49.675000      +0.788816
      +23     +49.225000      +0.742418
