                                                                                     
                             WELCOME TO ABACUS v3.0                                  
                                                                                     
               'Atomic-orbital Based Ab-initio Computation at UStc'                  
                                                                                     
                     Website: http://abacus.ustc.edu.cn/                             
                                                                                     
    Version: Parallel, in development
    Processor Number is 1
    Start Time is Sat May 13 19:52:45 2023
                                                                                     
 ------------------------------------------------------------------------------------

 READING GENERAL INFORMATION
                           global_out_dir = OUT.oftest/
                           global_in_card = INPUT
                               pseudo_dir = 
                              orbital_dir = 
                                    DRANK = 1
                                    DSIZE = 1
                                   DCOLOR = 1
                                    GRANK = 1
                                    GSIZE = 1
 The esolver type has been set to : ofdft




 >>>>>>>>>>>>>>>>>>>>>>>>>>>>>>>>>>>>>>>>>>>>>>>>>>>>>>>>>>>>>>>>>>>>>>
 |                                                                    |
 | Reading atom information in unitcell:                              |
 | From the input file and the structure file we know the number of   |
 | different elments in this unitcell, then we list the detail        |
 | information for each element, especially the zeta and polar atomic |
 | orbital number for each element. The total atom number is counted. |
 | We calculate the nearest atom distance for each atom and show the  |
 | Cartesian and Direct coordinates for each atom. We list the file   |
 | address for atomic orbitals. The volume and the lattice vectors    |
 | in real and reciprocal space is also shown.                        |
 |                                                                    |
 <<<<<<<<<<<<<<<<<<<<<<<<<<<<<<<<<<<<<<<<<<<<<<<<<<<<<<<<<<<<<<<<<<<<<<




 READING UNITCELL INFORMATION
                                    ntype = 2
                 atom label for species 1 = Mg
                 atom label for species 2 = Al
                  lattice constant (Bohr) = 1.88973
              lattice constant (Angstrom) = 1

 READING ATOM TYPE 1
                               atom label = Mg
                      L=0, number of zeta = 1
                      L=1, number of zeta = 1
                      L=2, number of zeta = 1
             number of atom for this type = 1
                      start magnetization = FALSE

 READING ATOM TYPE 2
                               atom label = Al
                      L=0, number of zeta = 1
                      L=1, number of zeta = 1
                      L=2, number of zeta = 1
             number of atom for this type = 2
                      start magnetization = FALSE
                      start magnetization = FALSE

                        TOTAL ATOM NUMBER = 3

 DIRECT COORDINATES
         atom                   x                   y                   z                 mag                  vx                  vy                  vz
     taud_Mg1                   0                   0                   0                   0                   0                   0                   0
     taud_Al1            0.333333            0.666667            0.656371                   0                   0                   0                   0
     taud_Al2            0.666667            0.333333            0.343629                   0                   0                   0                   0


                          Volume (Bohr^3) = 362.358
                             Volume (A^3) = 53.6958

 Lattice vectors: (Cartesian coordinate: in unit of a_0)
             +1.46701            -2.54093                  +0
             +1.46701            +2.54093                  +0
                   +0                  +0            +7.20254
 Reciprocal vectors: (Cartesian coordinate: in unit of 2 pi/a_0)
             +0.34083           -0.196778                  +0
             +0.34083           +0.196778                  -0
                   -0                  -0            +0.13884




 >>>>>>>>>>>>>>>>>>>>>>>>>>>>>>>>>>>>>>>>>>>>>>>>>>>>>>>>>>>>>>>>>>>>>>
 |                                                                    |
 | Reading pseudopotentials files:                                    |
 | The pseudopotential file is in UPF format. The 'NC' indicates that |
 | the type of pseudopotential is 'norm conserving'. Functional of    |
 | exchange and correlation is decided by 4 given parameters in UPF   |
 | file.  We also read in the 'core correction' if there exists.      |
 | Also we can read the valence electrons number and the maximal      |
 | angular momentum used in this pseudopotential. We also read in the |
 | trail wave function, trail atomic density and local-pseudopotential|
 | on logrithmic grid. The non-local pseudopotential projector is also|
 | read in if there is any.                                           |
 |                                                                    |
 <<<<<<<<<<<<<<<<<<<<<<<<<<<<<<<<<<<<<<<<<<<<<<<<<<<<<<<<<<<<<<<<<<<<<<




                PAO radial cut off (Bohr) = 16

 Read in pseudopotential file is mg.gga.psp
                     pseudopotential type = 
          exchange-correlation functional = XC_GGA_X_PBE+XC_GGA_C_PBE
                 nonlocal core correction = 0
                        valence electrons = 2
                                     lmax = 0
                           number of zeta = 0
                     number of projectors = 0
                PAO radial cut off (Bohr) = 16

 Read in pseudopotential file is al.gga.psp
                     pseudopotential type = 
          exchange-correlation functional = XC_GGA_X_PBE+XC_GGA_C_PBE
                 nonlocal core correction = 0
                        valence electrons = 3
                                     lmax = 0
                           number of zeta = 0
                     number of projectors = 0
Notice: symbol 'mg_locpsp' is not an element symbol!!!! set the covalent radius to be 0.
Notice: symbol 'al_locpsp' is not an element symbol!!!! set the covalent radius to be 0.
     initial pseudo atomic orbital number = 0
                                   NLOCAL = 27




 >>>>>>>>>>>>>>>>>>>>>>>>>>>>>>>>>>>>>>>>>>>>>>>>>>>>>>>>>>>>>>>>>>>>>>
 |                                                                    |
 | Setup plane waves of charge/potential:                             |
 | Use the energy cutoff and the lattice vectors to generate the      |
 | dimensions of FFT grid. The number of FFT grid on each processor   |
 | is 'nrxx'. The number of plane wave basis in reciprocal space is   |
 | different for charege/potential and wave functions. We also set    |
 | the 'sticks' for the parallel of FFT. The number of plane waves    |
 | is 'npw' in each processor.                                        |
 <<<<<<<<<<<<<<<<<<<<<<<<<<<<<<<<<<<<<<<<<<<<<<<<<<<<<<<<<<<<<<<<<<<<<<





 SETUP THE PLANE WAVE BASIS
 energy cutoff for charge/potential (unit:Ry) = 235.196
          [fft grid for charge/potential] = 27, 27, 72
                      [fft grid division] = 1, 1, 1
      [big fft grid for charge/potential] = 27, 27, 72
                                     nbxx = 52488
                                     nrxx = 52488

 SETUP PLANE WAVES FOR CHARGE/POTENTIAL
                    number of plane waves = 52488
                         number of sticks = 729

 PARALLEL PW FOR CHARGE/POTENTIAL
     PROC   COLUMNS(POT)             PW
        1            729          52488
 --------------- sum -------------------
        1            729          52488
                            number of |g| = 3663
                                  max |g| = 103.51
                                  min |g| = 0

 SETUP THE ELECTRONS NUMBER
            electron number of element Mg = 2
      total electron number of element Mg = 2
            electron number of element Al = 3
      total electron number of element Al = 6
            AUTOSET number of electrons:  = 8
 DONE : SETUP UNITCELL Time : 0.240463 (SEC)





 >>>>>>>>>>>>>>>>>>>>>>>>>>>>>>>>>>>>>>>>>>>>>>>>>>>>>>>>>>>>>>>>>>>>>>
 |                                                                    |
 | Doing symmetry analysis:                                           |
 | We calculate the norm of 3 vectors and the angles between them,    |
 | the type of Bravais lattice is given. We can judge if the unticell |
 | is a primitive cell. Finally we give the point group operation for |
 | this unitcell. We we use the point group operations to do symmetry |
 | analysis on given k-point mesh and the charge density.             |
 |                                                                    |
 <<<<<<<<<<<<<<<<<<<<<<<<<<<<<<<<<<<<<<<<<<<<<<<<<<<<<<<<<<<<<<<<<<<<<<




 LATTICE VECTORS: (CARTESIAN COORDINATE: IN UNIT OF A0)
             +1.46701            -2.54093                  +0
             +1.46701            +2.54093                  +0
                   +0                  +0            +7.20254
                       right hand lattice = 1
                                   NORM_A = 2.93401
                                   NORM_B = 2.93401
                                   NORM_C = 7.20254
                           ALPHA (DEGREE) = 120
                           BETA  (DEGREE) = 90
                           GAMMA (DEGREE) = 90
                             BRAVAIS TYPE = 4
                     BRAVAIS LATTICE NAME = 04. Hexagonal cell
                                    IBRAV = 4
                                  BRAVAIS = HEXAGONAL CELL
                       LATTICE CONSTANT A = 2.93401
                                C/A RATIO = 2.45484
                                    ibrav = 4
                        ROTATION MATRICES = 24
              PURE POINT GROUP OPERATIONS = 24
                   SPACE GROUP OPERATIONS = 24
                                       C2 = 7
                                       C3 = 2
                                       C4 = 0
                                       C6 = 2
                                       S1 = 7
                                       S3 = 2
                                       S4 = 0
                                       S6 = 2
                              POINT GROUP = D_6h
Warning : If the optimal symmetric configuration is not the input configuration, 
you have to manually change configurations, ABACUS would only calculate the input structure.
 DONE : SYMMETRY Time : 0.300143 (SEC)





 >>>>>>>>>>>>>>>>>>>>>>>>>>>>>>>>>>>>>>>>>>>>>>>>>>>>>>>>>>>>>>>>>>>>>>
 |                                                                    |
 | Setup K-points                                                     |
 | We setup the k-points according to input parameters.               |
 | The reduced k-points are set according to symmetry operations.     |
 | We treat the spin as another set of k-points.                      |
 |                                                                    |
 <<<<<<<<<<<<<<<<<<<<<<<<<<<<<<<<<<<<<<<<<<<<<<<<<<<<<<<<<<<<<<<<<<<<<<





 SETUP K-POINTS
                                    nspin = 1
                   Input type of k points = Monkhorst-Pack(Gamma)
                                   nkstot = 1
                               nkstot_ibz = 1
      IBZ             DirectX             DirectY             DirectZ              Weight    ibz2bz
        1                   0                   0                   0                   1         0
                               nkstot now = 1

  KPOINTS            DIRECT_X            DIRECT_Y            DIRECT_Z              WEIGHT
        1                   0                   0                   0                   1

           k-point number in this process = 1
       minimum distributed K point number = 1

  KPOINTS         CARTESIAN_X         CARTESIAN_Y         CARTESIAN_Z              WEIGHT
        1                   0                   0                   0                   2

  KPOINTS            DIRECT_X            DIRECT_Y            DIRECT_Z              WEIGHT
        1                   0                   0                   0                   2
 DONE : INIT K-POINTS Time : 0.300457 (SEC)

 DONE : INIT BASIS Time : 0.317536 (SEC)

 DONE : INIT PHI Time : 0.317616 (SEC)


 SETUP NONLOCAL PSEUDOPOTENTIALS IN PLANE WAVE BASIS
 Mg non-local projectors:
 Al non-local projectors:
      TOTAL NUMBER OF NONLOCAL PROJECTORS = 0

 nhm = 0, not allocate some matrix. DONE : LOCAL POTENTIAL Time : 0.995651 (SEC)


 Init Non-Local PseudoPotential table : 
 Init Non-Local-Pseudopotential done.
 DONE : NON-LOCAL POTENTIAL Time : 0.995741 (SEC)

Successful completion of Potential's registration : local
Successful completion of Potential's registration : hartree
Successful completion of Potential's registration : xc
                                 init_chg = atomic
 DONE : INIT POTENTIAL Time : 1.78421 (SEC)

 DONE : INIT OPTIMIZATION Time : 1.78451 (SEC)

 DONE : INIT KEDF Time : 1.87093 (SEC)


 charge density convergence is achieved
 final etot is -138.029 eV



 ><><><><><><><><><><><><><><><><><><><><><><

    TOTAL-FORCE (eV/Angstrom)

 ><><><><><><><><><><><><><><><><><><><><><><

     atom              x              y              z
      Mg1              0              0              0
      Al1              0              0    -0.26254981
      Al2              0              0    +0.26254981


 ><><><><><><><><><><><><><><><><><><><><><><

 TOTAL-STRESS (KBAR)

 ><><><><><><><><><><><><><><><><><><><><><><

    -1064.310102      +0.000000      +0.000000
       +0.000000   -1064.310102      +0.000000
       +0.000000      +0.000000   -1055.704198
 TOTAL-PRESSURE: -1061.441467 KBAR


 --------------------------------------------
 !FINAL_ETOT_IS -138.0291749108610304 eV
 --------------------------------------------






  |CLASS_NAME---------|NAME---------------|TIME(Sec)-----|CALLS----|AVG------|PER%-------
                                      total     +898.74940        21    +42.80   +100.00%
                 Driver         driver_line     +898.74143         1   +898.74   +100.00%
               PW_Basis      setuptransform       +0.20890         1     +0.21     +0.02%
              ppcell_vl           init_vloc       +0.67786         1     +0.68     +0.08%
                 Charge          atomic_rho       +0.68975         1     +0.69     +0.08%
               PW_Basis          recip2real      +20.75504      7911     +0.00     +2.31%
               PW_Basis    gathers_scatterp       +1.63384      7911     +0.00     +0.18%
              Potential  update_from_charge      +29.21363       396     +0.07     +3.25%
              Potential           cal_v_eff      +29.20779       396     +0.07     +3.25%
           H_Hartree_pw           v_hartree       +2.36558       396     +0.01     +0.26%
               PW_Basis          real2recip      +19.98179      7913     +0.00     +2.22%
               PW_Basis    gatherp_scatters       +1.01438      7913     +0.00     +0.11%
                  PotXC           cal_v_eff      +26.76014       396     +0.07     +2.98%
          XC_Functional                v_xc     +446.75170       198     +2.26    +49.71%
          XC_Functional          v_xc_libxc      +26.71777       396     +0.07     +2.97%
             ESolver_OF                 Run     +895.52669         1   +895.53    +99.64%
                KEDF_vW        vw_potential       +2.33467       395     +0.01     +0.26%
           OF_Stress_PW          cal_stress       +1.31785         1     +1.32     +0.15%
            Stress_Func          stress_gga       +0.13933         1     +0.14     +0.02%
            Stress_Func          stress_loc       +1.15658         1     +1.16     +0.13%
 ----------------------------------------------------------------------------------------

 CLASS_NAME---------|NAME---------------|MEMORY(MB)--------
                                         +5.6181
             PW_Basis           struc_fac        +1.6018
 ----------------------------------------------------------

 Start  Time  : Sat May 13 19:52:45 2023
 Finish Time  : Sat May 13 20:07:44 2023
 Total  Time  : 0 h 14 mins 59 secs 
