 *********************************************************
 *                                                       *
 *                  WELCOME TO ABACUS v3.0               *
 *                                                       *
 *            'Atomic-orbital Based Ab-initio            *
 *                  Computation at UStc'                 *
 *                                                       *
 *          Website: http://abacus.ustc.edu.cn/          *
 *                                                       *
 *********************************************************
 Tue May  2 12:49:08 2023
 MAKE THE DIR         : OUT.blpstest/
Notice: symbol 'Li_locpsp' is not an element symbol!!!! set the covalent radius to be 0.
 UNIFORM GRID DIM     : 25 * 25 * 25
 UNIFORM GRID DIM(BIG): 25 * 25 * 25
func,idXC_GGA_X_PBE 101
func,idXC_GGA_C_PBE 130
 DONE(0.0974283  SEC) : SETUP UNITCELL
 DONE(0.151808   SEC) : SYMMETRY
 DONE(0.152017   SEC) : INIT K-POINTS
 ---------------------------------------------------------
 Self-consistent calculations for electrons
 ---------------------------------------------------------
 SPIN    KPOINTS         PROCESSORS  
 1       1               1           
 ---------------------------------------------------------
 Use plane wave basis
 ---------------------------------------------------------
 ELEMENT NATOM       XC          
 Li      1           
 ---------------------------------------------------------
 Initial plane wave basis and FFT box
 ---------------------------------------------------------
 DONE(0.15289    SEC) : INIT BASIS
 DONE(0.152909   SEC) : INIT PHI
 DONE(0.174543   SEC) : LOCAL POTENTIAL
 DONE(0.174573   SEC) : NON-LOCAL POTENTIAL
 START CHARGE      : atomic
 DONE(0.218942   SEC) : INIT POTENTIAL
 DONE(0.218987   SEC) : INIT OPTIMIZATION
Default type: double
 DONE(0.21984    SEC) : INIT KEDF
======================== Running OFDFT ========================
Iter        Etot(Ha)          Theta      PotNorm     deltaE(Ha)
0     -2.621768735092e-01   2.000e-01   7.343e-02   -2.622e-01  
1     -2.728624042478e-01   7.559e-02   2.225e-02   -1.069e-02  
2     -2.730833323756e-01   6.353e-03   1.807e-03   -2.209e-04  
3     -2.730867880228e-01   1.910e-03   1.526e-04   -3.456e-06  
4     -2.730868026898e-01   7.975e-05   1.361e-05   -1.467e-08  
5     -2.730868028044e-01   7.737e-06   7.991e-06   -1.146e-10  

  |CLASS_NAME---------|NAME---------------|TIME(Sec)-----|CALLS----|AVG------|PER%-------
                       total               6.0879         21        0.29      1e+02     %
   Driver              driver_line         6.0741         1         6.1       1e+02     %
   PW_Basis            recip2real          1.14           1594      0.00072   19        %
   PW_Basis            gathers_scatterp    0.10943        1594      6.9e-05   1.8       %
   Potential           update_from_charge  3.4791         123       0.028     57        %
   Potential           cal_v_eff           3.4777         123       0.028     57        %
   H_Hartree_pw        v_hartree           0.2767         123       0.0022    4.5       %
   PW_Basis            real2recip          1.1326         1594      0.00071   19        %
   PW_Basis            gatherp_scatters    0.11091        1594      7e-05     1.8       %
   PotXC               cal_v_eff           3.1796         123       0.026     52        %
   XC_Functional       v_xc                2.9146         62        0.047     48        %
   XC_Functional       v_xc_libxc          3.1361         123       0.025     52        %
   ESolver_OF          Run                 5.8668         1         5.9       96        %
   KEDF_LKT            LKT_potential       1.9752         122       0.016     32        %
   KEDF_vW             vw_potential        0.25572        122       0.0021    4.2       %
 ----------------------------------------------------------------------------------------

 START  Time  : Tue May  2 12:49:08 2023
 FINISH Time  : Tue May  2 12:49:14 2023
 TOTAL  Time  : 6
 SEE INFORMATION IN : OUT.blpstest/
