                                                                                     
                             WELCOME TO ABACUS v3.0                                  
                                                                                     
               'Atomic-orbital Based Ab-initio Computation at UStc'                  
                                                                                     
                     Website: http://abacus.ustc.edu.cn/                             
                                                                                     
    Version: Parallel, in development
    Processor Number is 1
    Start Time is Wed Mar 22 11:42:11 2023
                                                                                     
 ------------------------------------------------------------------------------------

 READING GENERAL INFORMATION
                           global_out_dir = OUT.blpstest/
                           global_in_card = INPUT
                               pseudo_dir = 
                              orbital_dir = 
                                    DRANK = 1
                                    DSIZE = 1
                                   DCOLOR = 1
                                    GRANK = 1
                                    GSIZE = 1
 The esolver type has been set to : ksdft_pw




 >>>>>>>>>>>>>>>>>>>>>>>>>>>>>>>>>>>>>>>>>>>>>>>>>>>>>>>>>>>>>>>>>>>>>>
 |                                                                    |
 | Reading atom information in unitcell:                              |
 | From the input file and the structure file we know the number of   |
 | different elments in this unitcell, then we list the detail        |
 | information for each element, especially the zeta and polar atomic |
 | orbital number for each element. The total atom number is counted. |
 | We calculate the nearest atom distance for each atom and show the  |
 | Cartesian and Direct coordinates for each atom. We list the file   |
 | address for atomic orbitals. The volume and the lattice vectors    |
 | in real and reciprocal space is also shown.                        |
 |                                                                    |
 <<<<<<<<<<<<<<<<<<<<<<<<<<<<<<<<<<<<<<<<<<<<<<<<<<<<<<<<<<<<<<<<<<<<<<




 READING UNITCELL INFORMATION
                                    ntype = 2
                 atom label for species 1 = Al
                 atom label for species 2 = P
                  lattice constant (Bohr) = 9.28186
              lattice constant (Angstrom) = 4.91175

 READING ATOM TYPE 1
                               atom label = Al
                      L=0, number of zeta = 1
                      L=1, number of zeta = 1
                      L=2, number of zeta = 1
             number of atom for this type = 1
                      start magnetization = FALSE

 READING ATOM TYPE 2
                               atom label = P
                      L=0, number of zeta = 1
                      L=1, number of zeta = 1
                      L=2, number of zeta = 1
             number of atom for this type = 1
                      start magnetization = FALSE

                        TOTAL ATOM NUMBER = 2

 DIRECT COORDINATES
         atom                   x                   y                   z                 mag                  vx                  vy                  vz
     taud_Al1                   0                   0                   0                   0                   0                   0                   0
      taud_P1                0.25                0.25                0.25                   0                   0                   0                   0


                          Volume (Bohr^3) = 199.915
                             Volume (A^3) = 29.6243

 Lattice vectors: (Cartesian coordinate: in unit of a_0)
                   +0                +0.5                +0.5
                 +0.5                  +0                +0.5
                 +0.5                +0.5                  +0
 Reciprocal vectors: (Cartesian coordinate: in unit of 2 pi/a_0)
                   -1                  +1                  +1
                   +1                  -1                  +1
                   +1                  +1                  -1




 >>>>>>>>>>>>>>>>>>>>>>>>>>>>>>>>>>>>>>>>>>>>>>>>>>>>>>>>>>>>>>>>>>>>>>
 |                                                                    |
 | Reading pseudopotentials files:                                    |
 | The pseudopotential file is in UPF format. The 'NC' indicates that |
 | the type of pseudopotential is 'norm conserving'. Functional of    |
 | exchange and correlation is decided by 4 given parameters in UPF   |
 | file.  We also read in the 'core correction' if there exists.      |
 | Also we can read the valence electrons number and the maximal      |
 | angular momentum used in this pseudopotential. We also read in the |
 | trail wave function, trail atomic density and local-pseudopotential|
 | on logrithmic grid. The non-local pseudopotential projector is also|
 | read in if there is any.                                           |
 |                                                                    |
 <<<<<<<<<<<<<<<<<<<<<<<<<<<<<<<<<<<<<<<<<<<<<<<<<<<<<<<<<<<<<<<<<<<<<<




                PAO radial cut off (Bohr) = 16

 Read in pseudopotential file is al.gga.psp
                     pseudopotential type = 
          exchange-correlation functional = XC_GGA_X_PBE+XC_GGA_C_PBE
                 nonlocal core correction = 0
                        valence electrons = 3
                                     lmax = 0
                           number of zeta = 0
                     number of projectors = 0
                PAO radial cut off (Bohr) = 16

 Read in pseudopotential file is p.gga.psp
                     pseudopotential type = 
          exchange-correlation functional = XC_GGA_X_PBE+XC_GGA_C_PBE
                 nonlocal core correction = 0
                        valence electrons = 5
                                     lmax = 0
                           number of zeta = 0
                     number of projectors = 0
Notice: symbol 'al_locpsp' is not an element symbol!!!! set the covalent radius to be 0.
Notice: symbol 'P_locpsp' is not an element symbol!!!! set the covalent radius to be 0.
     initial pseudo atomic orbital number = 0
                                   NLOCAL = 18




 >>>>>>>>>>>>>>>>>>>>>>>>>>>>>>>>>>>>>>>>>>>>>>>>>>>>>>>>>>>>>>>>>>>>>>
 |                                                                    |
 | Setup plane waves of charge/potential:                             |
 | Use the energy cutoff and the lattice vectors to generate the      |
 | dimensions of FFT grid. The number of FFT grid on each processor   |
 | is 'nrxx'. The number of plane wave basis in reciprocal space is   |
 | different for charege/potential and wave functions. We also set    |
 | the 'sticks' for the parallel of FFT. The number of plane waves    |
 | is 'npw' in each processor.                                        |
 <<<<<<<<<<<<<<<<<<<<<<<<<<<<<<<<<<<<<<<<<<<<<<<<<<<<<<<<<<<<<<<<<<<<<<





 SETUP THE PLANE WAVE BASIS
 energy cutoff for charge/potential (unit:Ry) = 240
          [fft grid for charge/potential] = 36, 36, 36
                      [fft grid division] = 1, 1, 1
      [big fft grid for charge/potential] = 36, 36, 36
                                     nbxx = 46656
                                     nrxx = 46656

 SETUP PLANE WAVES FOR CHARGE/POTENTIAL
                    number of plane waves = 12507
                         number of sticks = 721

 PARALLEL PW FOR CHARGE/POTENTIAL
     PROC   COLUMNS(POT)             PW
        1            721          12507
 --------------- sum -------------------
        1            721          12507
                            number of |g| = 176
                                  max |g| = 523
                                  min |g| = 0

 SETUP THE ELECTRONS NUMBER
            electron number of element Al = 3
      total electron number of element Al = 3
             electron number of element P = 5
       total electron number of element P = 5
            AUTOSET number of electrons:  = 8
 DONE : SETUP UNITCELL Time : 0.190672 (SEC)





 >>>>>>>>>>>>>>>>>>>>>>>>>>>>>>>>>>>>>>>>>>>>>>>>>>>>>>>>>>>>>>>>>>>>>>
 |                                                                    |
 | Doing symmetry analysis:                                           |
 | We calculate the norm of 3 vectors and the angles between them,    |
 | the type of Bravais lattice is given. We can judge if the unticell |
 | is a primitive cell. Finally we give the point group operation for |
 | this unitcell. We we use the point group operations to do symmetry |
 | analysis on given k-point mesh and the charge density.             |
 |                                                                    |
 <<<<<<<<<<<<<<<<<<<<<<<<<<<<<<<<<<<<<<<<<<<<<<<<<<<<<<<<<<<<<<<<<<<<<<




 LATTICE VECTORS: (CARTESIAN COORDINATE: IN UNIT OF A0)
                   +0                +0.5                +0.5
                 +0.5                  +0                +0.5
                 +0.5                +0.5                  +0
                       right hand lattice = 1
                                   NORM_A = 0.707107
                                   NORM_B = 0.707107
                                   NORM_C = 0.707107
                           ALPHA (DEGREE) = 60
                           BETA  (DEGREE) = 60
                           GAMMA (DEGREE) = 60
                             BRAVAIS TYPE = 3
                     BRAVAIS LATTICE NAME = 03. Cubic F (face-centered)
                                    IBRAV = 3
                                  BRAVAIS = FACE CENTERED CUBIC
                       LATTICE CONSTANT A = 1
                                    ibrav = 3
                        ROTATION MATRICES = 48
              PURE POINT GROUP OPERATIONS = 48
                   SPACE GROUP OPERATIONS = 48
                              POINT GROUP = O_h
Warning : If the optimal symmetric configuration is not the input configuration, 
you have to manually change configurations, ABACUS would only calculate the input structure.
 DONE : SYMMETRY Time : 0.220905 (SEC)





 >>>>>>>>>>>>>>>>>>>>>>>>>>>>>>>>>>>>>>>>>>>>>>>>>>>>>>>>>>>>>>>>>>>>>>
 |                                                                    |
 | Setup K-points                                                     |
 | We setup the k-points according to input parameters.               |
 | The reduced k-points are set according to symmetry operations.     |
 | We treat the spin as another set of k-points.                      |
 |                                                                    |
 <<<<<<<<<<<<<<<<<<<<<<<<<<<<<<<<<<<<<<<<<<<<<<<<<<<<<<<<<<<<<<<<<<<<<<





 SETUP K-POINTS
                                    nspin = 1
                   Input type of k points = Monkhorst-Pack(Gamma)
                                   nkstot = 8000
                               nkstot_ibz = 256
      IBZ             DirectX             DirectY             DirectZ              Weight    ibz2bz
        1                   0                   0                   0            0.000125         0
        2                0.95                0.95                0.95               0.001         1
        3                 0.9                 0.9                 0.9               0.001         2
        4                0.85                0.85                0.85               0.001         3
        5                 0.8                 0.8                 0.8               0.001         4
        6                0.75                0.75                0.75               0.001         5
        7                 0.7                 0.7                 0.7               0.001         6
        8                0.65                0.65                0.65               0.001         7
        9                 0.6                 0.6                 0.6               0.001         8
       10                0.55                0.55                0.55               0.001         9
       11                 0.5                 0.5                 0.5              0.0005        10
       12                   0                0.95                0.95             0.00075        21
       13                0.95                 0.9                 0.9               0.003        22
       14                 0.9                0.85                0.85               0.003        23
       15                0.85                 0.8                 0.8               0.003        24
       16                0.95                0.95                 0.2               0.003        25
       17                0.95                0.95                0.25               0.003        26
       18                0.95                0.95                 0.3               0.003        27
       19                0.95                0.95                0.35               0.003        28
       20                0.95                0.95                 0.4               0.003        29
       21                0.95                0.95                0.45               0.003        30
       22                0.95                0.95                 0.5               0.003        31
       23                0.95                0.95                0.55               0.003        32
       24                0.95                0.95                 0.6               0.003        33
       25                0.95                0.95                0.65               0.003        34
       26                0.95                0.95                 0.7               0.003        35
       27                0.95                0.95                0.75               0.003        36
       28                0.95                0.95                 0.8               0.003        37
       29                0.95                0.95                0.85               0.003        38
       30                0.95                0.95                 0.9              0.0015        39
       31                   0                 0.9                 0.9             0.00075        42
       32                0.95                0.85                0.85               0.003        43
       33                 0.9                 0.8                 0.8               0.003        44
       34                0.85                0.75                0.75               0.003        45
       35                 0.9                 0.9                 0.2               0.003        46
       36                 0.9                 0.9                0.25               0.003        47
       37                 0.9                 0.9                 0.3               0.003        48
       38                 0.9                 0.9                0.35               0.003        49
       39                 0.9                 0.9                 0.4               0.003        50
       40                 0.9                 0.9                0.45               0.003        51
       41                 0.9                 0.9                 0.5               0.003        52
       42                 0.9                 0.9                0.55               0.003        53
       43                 0.9                 0.9                 0.6               0.003        54
       44                 0.9                0.65                 0.9               0.003        55
       45                 0.9                 0.7                 0.9               0.003        56
       46                 0.9                 0.9                0.75               0.003        57
       47                 0.9                 0.9                 0.8              0.0015        58
       48                0.85                0.85                   0             0.00075        63
       49                0.95                 0.8                 0.8               0.003        64
       50                 0.9                0.75                0.75               0.003        65
       51                0.85                 0.7                 0.7               0.003        66
       52                 0.8                0.65                0.65               0.003        67
       53                0.85                0.85                0.25               0.003        68
       54                0.85                0.85                 0.3               0.003        69
       55                0.85                0.85                0.35               0.003        70
       56                0.85                0.85                 0.4               0.003        71
       57                0.85                0.85                0.45               0.003        72
       58                0.85                0.85                 0.5               0.003        73
       59                0.85                0.85                0.55               0.003        74
       60                0.85                 0.6                0.85               0.003        75
       61                0.85                0.85                0.65               0.003        76
       62                0.85                0.85                 0.7              0.0015        77
       63                 0.8                 0.8                   0             0.00075        84
       64                0.95                0.75                0.75               0.003        85
       65                 0.9                 0.7                 0.7               0.003        86
       66                0.85                0.65                0.65               0.003        87
       67                 0.6                 0.6                 0.8               0.003        88
       68                 0.8                 0.8                0.25               0.003        89
       69                 0.8                 0.8                 0.3               0.003        90
       70                 0.8                 0.8                0.35               0.003        91
       71                 0.8                 0.8                 0.4               0.003        92
       72                 0.8                 0.8                0.45               0.003        93
       73                 0.8                 0.8                 0.5               0.003        94
       74                 0.8                 0.8                0.55               0.003        95
       75                 0.8                 0.8                 0.6              0.0015        96
       76                   0                0.75                0.75             0.00075       105
       77                0.95                 0.7                 0.7               0.003       106
       78                 0.9                0.65                0.65               0.003       107
       79                0.85                 0.6                 0.6               0.003       108
       80                 0.8                0.55                0.55               0.003       109
       81                0.75                0.75                0.25               0.003       110
       82                0.75                0.75                 0.3               0.003       111
       83                0.75                0.75                0.35               0.003       112
       84                0.75                0.75                 0.4               0.003       113
       85                0.75                0.75                0.45               0.003       114
       86                0.75                0.75                 0.5              0.0015       115
       87                   0                 0.7                 0.7             0.00075       126
       88                0.95                0.65                0.65               0.003       127
       89                 0.6                 0.6                 0.9               0.003       128
       90                0.55                0.55                0.85               0.003       129
       91                 0.8                 0.5                 0.5               0.003       130
       92                 0.7                 0.7                0.25               0.003       131
       93                 0.7                 0.7                 0.3               0.003       132
       94                 0.7                 0.7                0.35               0.003       133
       95                 0.7                 0.7                 0.4              0.0015       134
       96                   0                0.65                0.65             0.00075       147
       97                0.95                 0.6                 0.6               0.003       148
       98                 0.9                0.55                0.55               0.003       149
       99                0.85                 0.5                 0.5               0.003       150
      100                 0.8                0.45                0.45               0.003       151
      101                0.65                0.65                0.25               0.003       152
      102                0.65                0.65                 0.3              0.0015       153
      103                 0.6                 0.6                   0             0.00075       168
      104                0.95                0.55                0.55               0.003       169
      105                 0.9                 0.5                 0.5               0.003       170
      106                0.85                0.45                0.45               0.003       171
      107                 0.8                 0.4                 0.4              0.0015       172
      108                0.55                0.55                   0             0.00075       189
      109                0.95                 0.5                 0.5               0.003       190
      110                 0.9                0.45                0.45              0.0015       191
      111                   0                 0.5                 0.5            0.000375       210
      112                0.95                 0.9                0.85               0.003       443
      113                0.95                 0.9                 0.8               0.006       444
      114                0.95                 0.9                0.75               0.006       445
      115                0.95                 0.9                 0.7               0.006       446
      116                0.95                 0.9                0.65               0.006       447
      117                0.95                 0.9                 0.6               0.006       448
      118                0.95                 0.9                0.55               0.006       449
      119                0.95                 0.9                 0.5               0.006       450
      120                0.95                 0.9                0.45               0.003       451
      121                0.95                0.85                 0.8               0.003       464
      122                0.95                0.85                0.75               0.006       465
      123                0.95                0.85                 0.7               0.006       466
      124                0.95                0.85                0.65               0.006       467
      125                0.95                0.85                 0.6               0.006       468
      126                0.95                0.85                0.55               0.006       469
      127                0.95                0.85                 0.5               0.006       470
      128                0.95                0.85                0.45               0.006       471
      129                0.95                0.85                 0.4               0.006       472
      130                 0.9                0.85                 0.5               0.006       473
      131                 0.9                0.85                0.55               0.006       474
      132                 0.9                0.85                 0.6               0.006       475
      133                 0.9                0.85                0.65               0.006       476
      134                 0.9                0.85                 0.7               0.006       477
      135                 0.9                0.85                0.75               0.003       478
      136                0.95                 0.8                0.75               0.003       485
      137                0.95                 0.8                 0.7               0.006       486
      138                0.95                 0.8                0.65               0.006       487
      139                0.95                 0.6                 0.8               0.006       488
      140                0.95                0.55                 0.8               0.006       489
      141                0.95                 0.8                 0.5               0.006       490
      142                0.95                 0.8                0.45               0.006       491
      143                0.95                 0.8                 0.4               0.006       492
      144                0.95                 0.8                0.35               0.006       493
      145                0.95                 0.8                 0.3               0.006       494
      146                0.85                 0.8                0.55               0.006       495
      147                0.85                 0.8                 0.6               0.006       496
      148                0.85                 0.8                0.65               0.003       497
      149                0.95                0.75                 0.7               0.003       506
      150                0.95                0.75                0.65               0.006       507
      151                0.95                 0.6                0.75               0.006       508
      152                0.95                0.75                0.55               0.006       509
      153                0.95                0.75                 0.5               0.006       510
      154                0.95                0.75                0.45               0.006       511
      155                0.95                0.75                 0.4               0.006       512
      156                0.95                0.75                0.35               0.006       513
      157                0.95                0.75                 0.3               0.006       514
      158                0.95                0.75                0.25               0.006       515
      159                0.95                0.75                 0.2               0.003       516
      160                0.95                 0.7                0.65               0.003       527
      161                0.95                 0.7                 0.6               0.006       528
      162                0.95                 0.7                0.55               0.006       529
      163                0.95                 0.7                 0.5               0.006       530
      164                0.95                 0.7                0.45               0.006       531
      165                0.95                 0.7                 0.4               0.006       532
      166                0.95                 0.7                0.35               0.006       533
      167                0.95                 0.7                 0.3               0.006       534
      168                0.95                 0.7                0.25               0.003       535
      169                0.95                0.65                 0.6               0.003       548
      170                0.95                0.65                0.55               0.006       549
      171                0.95                0.65                 0.5               0.006       550
      172                0.95                0.65                0.45               0.006       551
      173                0.95                0.65                 0.4               0.006       552
      174                0.95                0.65                0.35               0.006       553
      175                0.95                0.65                 0.3               0.003       554
      176                0.95                 0.6                0.55               0.003       569
      177                0.95                 0.6                 0.5               0.006       570
      178                0.95                 0.6                0.45               0.006       571
      179                0.95                 0.6                 0.4               0.006       572
      180                0.95                 0.6                0.35               0.003       573
      181                0.95                0.55                 0.5               0.003       590
      182                0.95                0.55                0.45               0.006       591
      183                0.95                0.55                 0.4               0.003       592
      184                0.95                 0.5                0.45              0.0015       611
      185                 0.9                 0.8                 0.7               0.003       886
      186                 0.9                 0.8                0.65               0.006       887
      187                 0.9                 0.8                 0.6               0.006       888
      188                 0.9                 0.8                0.55               0.006       889
      189                 0.9                 0.8                 0.5               0.006       890
      190                 0.9                 0.8                0.45               0.006       891
      191                 0.9                 0.8                 0.4               0.003       892
      192                 0.9                0.75                0.65               0.003       907
      193                 0.9                0.75                 0.6               0.006       908
      194                 0.9                0.75                0.55               0.006       909
      195                 0.9                0.75                 0.5               0.006       910
      196                 0.9                0.75                0.45               0.006       911
      197                 0.9                0.75                 0.4               0.006       912
      198                 0.9                0.75                0.35               0.006       913
      199                0.85                0.75                0.45               0.006       914
      200                0.85                0.75                 0.5               0.006       915
      201                0.85                0.75                0.55               0.006       916
      202                0.85                0.75                 0.6               0.003       917
      203                 0.9                 0.7                 0.6               0.003       928
      204                 0.9                 0.7                0.55               0.006       929
      205                 0.9                 0.7                 0.5               0.006       930
      206                 0.9                 0.7                0.45               0.006       931
      207                 0.9                 0.7                 0.4               0.006       932
      208                 0.9                 0.7                0.35               0.006       933
      209                 0.9                 0.7                 0.3               0.006       934
      210                 0.9                 0.7                0.25               0.006       935
      211                 0.8                 0.7                 0.5               0.003       936
      212                 0.9                0.65                0.55               0.003       949
      213                 0.9                0.65                 0.5               0.006       950
      214                 0.9                0.65                0.45               0.006       951
      215                 0.9                0.65                 0.4               0.006       952
      216                 0.9                0.65                0.35               0.006       953
      217                 0.9                0.65                 0.3               0.006       954
      218                 0.9                0.65                0.25               0.003       955
      219                 0.9                 0.6                 0.5               0.003       970
      220                 0.9                 0.6                0.45               0.006       971
      221                 0.9                 0.6                 0.4               0.006       972
      222                 0.9                 0.6                0.35               0.006       973
      223                 0.9                 0.6                 0.3               0.003       974
      224                 0.9                0.55                0.45               0.003       991
      225                 0.9                0.55                 0.4               0.006       992
      226                 0.9                0.55                0.35               0.003       993
      227                 0.9                 0.5                 0.4              0.0015      1012
      228                0.85                 0.7                0.55               0.003      1329
      229                0.85                 0.7                 0.5               0.006      1330
      230                0.85                 0.7                0.45               0.006      1331
      231                0.85                 0.7                 0.4               0.006      1332
      232                0.85                 0.7                0.35               0.003      1333
      233                0.85                0.65                 0.5               0.003      1350
      234                0.85                0.65                0.45               0.006      1351
      235                0.85                0.65                 0.4               0.006      1352
      236                0.85                0.65                0.35               0.006      1353
      237                0.85                0.65                 0.3               0.006      1354
      238                 0.8                0.65                 0.4               0.006      1355
      239                 0.8                0.65                0.45               0.003      1356
      240                0.85                 0.6                0.45               0.003      1371
      241                0.85                 0.6                 0.4               0.006      1372
      242                0.85                 0.6                0.35               0.006      1373
      243                0.85                 0.6                 0.3               0.006      1374
      244                0.85                 0.6                0.25               0.003      1375
      245                0.85                0.55                 0.4               0.003      1392
      246                0.85                0.55                0.35               0.006      1393
      247                0.85                0.55                 0.3               0.003      1394
      248                0.85                 0.5                0.35              0.0015      1413
      249                 0.8                 0.6                 0.4               0.003      1772
      250                 0.8                 0.6                0.35               0.006      1773
      251                 0.8                 0.6                 0.3               0.003      1774
      252                 0.8                0.55                0.35               0.003      1793
      253                 0.8                0.55                 0.3               0.006      1794
      254                 0.8                0.55                0.25               0.003      1795
      255                 0.8                 0.5                 0.3              0.0015      1814
      256                0.75                 0.5                0.25             0.00075      2215
                               nkstot now = 256

  KPOINTS            DIRECT_X            DIRECT_Y            DIRECT_Z              WEIGHT
        1                   0                   0                   0            0.000125
        2                0.95                0.95                0.95               0.001
        3                 0.9                 0.9                 0.9               0.001
        4                0.85                0.85                0.85               0.001
        5                 0.8                 0.8                 0.8               0.001
        6                0.75                0.75                0.75               0.001
        7                 0.7                 0.7                 0.7               0.001
        8                0.65                0.65                0.65               0.001
        9                 0.6                 0.6                 0.6               0.001
       10                0.55                0.55                0.55               0.001
       11                 0.5                 0.5                 0.5              0.0005
       12                   0                0.95                0.95             0.00075
       13                0.95                 0.9                 0.9               0.003
       14                 0.9                0.85                0.85               0.003
       15                0.85                 0.8                 0.8               0.003
       16                0.95                0.95                 0.2               0.003
       17                0.95                0.95                0.25               0.003
       18                0.95                0.95                 0.3               0.003
       19                0.95                0.95                0.35               0.003
       20                0.95                0.95                 0.4               0.003
       21                0.95                0.95                0.45               0.003
       22                0.95                0.95                 0.5               0.003
       23                0.95                0.95                0.55               0.003
       24                0.95                0.95                 0.6               0.003
       25                0.95                0.95                0.65               0.003
       26                0.95                0.95                 0.7               0.003
       27                0.95                0.95                0.75               0.003
       28                0.95                0.95                 0.8               0.003
       29                0.95                0.95                0.85               0.003
       30                0.95                0.95                 0.9              0.0015
       31                   0                 0.9                 0.9             0.00075
       32                0.95                0.85                0.85               0.003
       33                 0.9                 0.8                 0.8               0.003
       34                0.85                0.75                0.75               0.003
       35                 0.9                 0.9                 0.2               0.003
       36                 0.9                 0.9                0.25               0.003
       37                 0.9                 0.9                 0.3               0.003
       38                 0.9                 0.9                0.35               0.003
       39                 0.9                 0.9                 0.4               0.003
       40                 0.9                 0.9                0.45               0.003
       41                 0.9                 0.9                 0.5               0.003
       42                 0.9                 0.9                0.55               0.003
       43                 0.9                 0.9                 0.6               0.003
       44                 0.9                0.65                 0.9               0.003
       45                 0.9                 0.7                 0.9               0.003
       46                 0.9                 0.9                0.75               0.003
       47                 0.9                 0.9                 0.8              0.0015
       48                0.85                0.85                   0             0.00075
       49                0.95                 0.8                 0.8               0.003
       50                 0.9                0.75                0.75               0.003
       51                0.85                 0.7                 0.7               0.003
       52                 0.8                0.65                0.65               0.003
       53                0.85                0.85                0.25               0.003
       54                0.85                0.85                 0.3               0.003
       55                0.85                0.85                0.35               0.003
       56                0.85                0.85                 0.4               0.003
       57                0.85                0.85                0.45               0.003
       58                0.85                0.85                 0.5               0.003
       59                0.85                0.85                0.55               0.003
       60                0.85                 0.6                0.85               0.003
       61                0.85                0.85                0.65               0.003
       62                0.85                0.85                 0.7              0.0015
       63                 0.8                 0.8                   0             0.00075
       64                0.95                0.75                0.75               0.003
       65                 0.9                 0.7                 0.7               0.003
       66                0.85                0.65                0.65               0.003
       67                 0.6                 0.6                 0.8               0.003
       68                 0.8                 0.8                0.25               0.003
       69                 0.8                 0.8                 0.3               0.003
       70                 0.8                 0.8                0.35               0.003
       71                 0.8                 0.8                 0.4               0.003
       72                 0.8                 0.8                0.45               0.003
       73                 0.8                 0.8                 0.5               0.003
       74                 0.8                 0.8                0.55               0.003
       75                 0.8                 0.8                 0.6              0.0015
       76                   0                0.75                0.75             0.00075
       77                0.95                 0.7                 0.7               0.003
       78                 0.9                0.65                0.65               0.003
       79                0.85                 0.6                 0.6               0.003
       80                 0.8                0.55                0.55               0.003
       81                0.75                0.75                0.25               0.003
       82                0.75                0.75                 0.3               0.003
       83                0.75                0.75                0.35               0.003
       84                0.75                0.75                 0.4               0.003
       85                0.75                0.75                0.45               0.003
       86                0.75                0.75                 0.5              0.0015
       87                   0                 0.7                 0.7             0.00075
       88                0.95                0.65                0.65               0.003
       89                 0.6                 0.6                 0.9               0.003
       90                0.55                0.55                0.85               0.003
       91                 0.8                 0.5                 0.5               0.003
       92                 0.7                 0.7                0.25               0.003
       93                 0.7                 0.7                 0.3               0.003
       94                 0.7                 0.7                0.35               0.003
       95                 0.7                 0.7                 0.4              0.0015
       96                   0                0.65                0.65             0.00075
       97                0.95                 0.6                 0.6               0.003
       98                 0.9                0.55                0.55               0.003
       99                0.85                 0.5                 0.5               0.003
      100                 0.8                0.45                0.45               0.003
      101                0.65                0.65                0.25               0.003
      102                0.65                0.65                 0.3              0.0015
      103                 0.6                 0.6                   0             0.00075
      104                0.95                0.55                0.55               0.003
      105                 0.9                 0.5                 0.5               0.003
      106                0.85                0.45                0.45               0.003
      107                 0.8                 0.4                 0.4              0.0015
      108                0.55                0.55                   0             0.00075
      109                0.95                 0.5                 0.5               0.003
      110                 0.9                0.45                0.45              0.0015
      111                   0                 0.5                 0.5            0.000375
      112                0.95                 0.9                0.85               0.003
      113                0.95                 0.9                 0.8               0.006
      114                0.95                 0.9                0.75               0.006
      115                0.95                 0.9                 0.7               0.006
      116                0.95                 0.9                0.65               0.006
      117                0.95                 0.9                 0.6               0.006
      118                0.95                 0.9                0.55               0.006
      119                0.95                 0.9                 0.5               0.006
      120                0.95                 0.9                0.45               0.003
      121                0.95                0.85                 0.8               0.003
      122                0.95                0.85                0.75               0.006
      123                0.95                0.85                 0.7               0.006
      124                0.95                0.85                0.65               0.006
      125                0.95                0.85                 0.6               0.006
      126                0.95                0.85                0.55               0.006
      127                0.95                0.85                 0.5               0.006
      128                0.95                0.85                0.45               0.006
      129                0.95                0.85                 0.4               0.006
      130                 0.9                0.85                 0.5               0.006
      131                 0.9                0.85                0.55               0.006
      132                 0.9                0.85                 0.6               0.006
      133                 0.9                0.85                0.65               0.006
      134                 0.9                0.85                 0.7               0.006
      135                 0.9                0.85                0.75               0.003
      136                0.95                 0.8                0.75               0.003
      137                0.95                 0.8                 0.7               0.006
      138                0.95                 0.8                0.65               0.006
      139                0.95                 0.6                 0.8               0.006
      140                0.95                0.55                 0.8               0.006
      141                0.95                 0.8                 0.5               0.006
      142                0.95                 0.8                0.45               0.006
      143                0.95                 0.8                 0.4               0.006
      144                0.95                 0.8                0.35               0.006
      145                0.95                 0.8                 0.3               0.006
      146                0.85                 0.8                0.55               0.006
      147                0.85                 0.8                 0.6               0.006
      148                0.85                 0.8                0.65               0.003
      149                0.95                0.75                 0.7               0.003
      150                0.95                0.75                0.65               0.006
      151                0.95                 0.6                0.75               0.006
      152                0.95                0.75                0.55               0.006
      153                0.95                0.75                 0.5               0.006
      154                0.95                0.75                0.45               0.006
      155                0.95                0.75                 0.4               0.006
      156                0.95                0.75                0.35               0.006
      157                0.95                0.75                 0.3               0.006
      158                0.95                0.75                0.25               0.006
      159                0.95                0.75                 0.2               0.003
      160                0.95                 0.7                0.65               0.003
      161                0.95                 0.7                 0.6               0.006
      162                0.95                 0.7                0.55               0.006
      163                0.95                 0.7                 0.5               0.006
      164                0.95                 0.7                0.45               0.006
      165                0.95                 0.7                 0.4               0.006
      166                0.95                 0.7                0.35               0.006
      167                0.95                 0.7                 0.3               0.006
      168                0.95                 0.7                0.25               0.003
      169                0.95                0.65                 0.6               0.003
      170                0.95                0.65                0.55               0.006
      171                0.95                0.65                 0.5               0.006
      172                0.95                0.65                0.45               0.006
      173                0.95                0.65                 0.4               0.006
      174                0.95                0.65                0.35               0.006
      175                0.95                0.65                 0.3               0.003
      176                0.95                 0.6                0.55               0.003
      177                0.95                 0.6                 0.5               0.006
      178                0.95                 0.6                0.45               0.006
      179                0.95                 0.6                 0.4               0.006
      180                0.95                 0.6                0.35               0.003
      181                0.95                0.55                 0.5               0.003
      182                0.95                0.55                0.45               0.006
      183                0.95                0.55                 0.4               0.003
      184                0.95                 0.5                0.45              0.0015
      185                 0.9                 0.8                 0.7               0.003
      186                 0.9                 0.8                0.65               0.006
      187                 0.9                 0.8                 0.6               0.006
      188                 0.9                 0.8                0.55               0.006
      189                 0.9                 0.8                 0.5               0.006
      190                 0.9                 0.8                0.45               0.006
      191                 0.9                 0.8                 0.4               0.003
      192                 0.9                0.75                0.65               0.003
      193                 0.9                0.75                 0.6               0.006
      194                 0.9                0.75                0.55               0.006
      195                 0.9                0.75                 0.5               0.006
      196                 0.9                0.75                0.45               0.006
      197                 0.9                0.75                 0.4               0.006
      198                 0.9                0.75                0.35               0.006
      199                0.85                0.75                0.45               0.006
      200                0.85                0.75                 0.5               0.006
      201                0.85                0.75                0.55               0.006
      202                0.85                0.75                 0.6               0.003
      203                 0.9                 0.7                 0.6               0.003
      204                 0.9                 0.7                0.55               0.006
      205                 0.9                 0.7                 0.5               0.006
      206                 0.9                 0.7                0.45               0.006
      207                 0.9                 0.7                 0.4               0.006
      208                 0.9                 0.7                0.35               0.006
      209                 0.9                 0.7                 0.3               0.006
      210                 0.9                 0.7                0.25               0.006
      211                 0.8                 0.7                 0.5               0.003
      212                 0.9                0.65                0.55               0.003
      213                 0.9                0.65                 0.5               0.006
      214                 0.9                0.65                0.45               0.006
      215                 0.9                0.65                 0.4               0.006
      216                 0.9                0.65                0.35               0.006
      217                 0.9                0.65                 0.3               0.006
      218                 0.9                0.65                0.25               0.003
      219                 0.9                 0.6                 0.5               0.003
      220                 0.9                 0.6                0.45               0.006
      221                 0.9                 0.6                 0.4               0.006
      222                 0.9                 0.6                0.35               0.006
      223                 0.9                 0.6                 0.3               0.003
      224                 0.9                0.55                0.45               0.003
      225                 0.9                0.55                 0.4               0.006
      226                 0.9                0.55                0.35               0.003
      227                 0.9                 0.5                 0.4              0.0015
      228                0.85                 0.7                0.55               0.003
      229                0.85                 0.7                 0.5               0.006
      230                0.85                 0.7                0.45               0.006
      231                0.85                 0.7                 0.4               0.006
      232                0.85                 0.7                0.35               0.003
      233                0.85                0.65                 0.5               0.003
      234                0.85                0.65                0.45               0.006
      235                0.85                0.65                 0.4               0.006
      236                0.85                0.65                0.35               0.006
      237                0.85                0.65                 0.3               0.006
      238                 0.8                0.65                 0.4               0.006
      239                 0.8                0.65                0.45               0.003
      240                0.85                 0.6                0.45               0.003
      241                0.85                 0.6                 0.4               0.006
      242                0.85                 0.6                0.35               0.006
      243                0.85                 0.6                 0.3               0.006
      244                0.85                 0.6                0.25               0.003
      245                0.85                0.55                 0.4               0.003
      246                0.85                0.55                0.35               0.006
      247                0.85                0.55                 0.3               0.003
      248                0.85                 0.5                0.35              0.0015
      249                 0.8                 0.6                 0.4               0.003
      250                 0.8                 0.6                0.35               0.006
      251                 0.8                 0.6                 0.3               0.003
      252                 0.8                0.55                0.35               0.003
      253                 0.8                0.55                 0.3               0.006
      254                 0.8                0.55                0.25               0.003
      255                 0.8                 0.5                 0.3              0.0015
      256                0.75                 0.5                0.25             0.00075

           k-point number in this process = 256
       minimum distributed K point number = 256

  KPOINTS         CARTESIAN_X         CARTESIAN_Y         CARTESIAN_Z              WEIGHT
        1                   0                   0                   0             0.00025
        2                0.95                0.95                0.95               0.002
        3                 0.9                 0.9                 0.9               0.002
        4                0.85                0.85                0.85               0.002
        5                 0.8                 0.8                 0.8               0.002
        6                0.75                0.75                0.75               0.002
        7                 0.7                 0.7                 0.7               0.002
        8                0.65                0.65                0.65               0.002
        9                 0.6                 0.6                 0.6               0.002
       10                0.55                0.55                0.55               0.002
       11                 0.5                 0.5                 0.5               0.001
       12                 1.9                   0                   0              0.0015
       13                0.85                0.95                0.95               0.006
       14                 0.8                 0.9                 0.9               0.006
       15                0.75                0.85                0.85               0.006
       16                 0.2                 0.2                 1.7               0.006
       17                0.25                0.25                1.65               0.006
       18                 0.3                 0.3                 1.6               0.006
       19                0.35                0.35                1.55               0.006
       20                 0.4                 0.4                 1.5               0.006
       21                0.45                0.45                1.45               0.006
       22                 0.5                 0.5                 1.4               0.006
       23                0.55                0.55                1.35               0.006
       24                 0.6                 0.6                 1.3               0.006
       25                0.65                0.65                1.25               0.006
       26                 0.7                 0.7                 1.2               0.006
       27                0.75                0.75                1.15               0.006
       28                 0.8                 0.8                 1.1               0.006
       29                0.85                0.85                1.05               0.006
       30                 0.9                 0.9                   1               0.003
       31                 1.8                   0                   0              0.0015
       32                0.75                0.95                0.95               0.006
       33                 0.7                 0.9                 0.9               0.006
       34                0.65                0.85                0.85               0.006
       35                 0.2                 0.2                 1.6               0.006
       36                0.25                0.25                1.55               0.006
       37                 0.3                 0.3                 1.5               0.006
       38                0.35                0.35                1.45               0.006
       39                 0.4                 0.4                 1.4               0.006
       40                0.45                0.45                1.35               0.006
       41                 0.5                 0.5                 1.3               0.006
       42                0.55                0.55                1.25               0.006
       43                 0.6                 0.6                 1.2               0.006
       44                0.65                1.15                0.65               0.006
       45                 0.7                 1.1                 0.7               0.006
       46                0.75                0.75                1.05               0.006
       47                 0.8                 0.8                   1               0.003
       48                   0                   0                 1.7              0.0015
       49                0.65                0.95                0.95               0.006
       50                 0.6                 0.9                 0.9               0.006
       51                0.55                0.85                0.85               0.006
       52                 0.5                 0.8                 0.8               0.006
       53                0.25                0.25                1.45               0.006
       54                 0.3                 0.3                 1.4               0.006
       55                0.35                0.35                1.35               0.006
       56                 0.4                 0.4                 1.3               0.006
       57                0.45                0.45                1.25               0.006
       58                 0.5                 0.5                 1.2               0.006
       59                0.55                0.55                1.15               0.006
       60                 0.6                 1.1                 0.6               0.006
       61                0.65                0.65                1.05               0.006
       62                 0.7                 0.7                   1               0.003
       63                   0                   0                 1.6              0.0015
       64                0.55                0.95                0.95               0.006
       65                 0.5                 0.9                 0.9               0.006
       66                0.45                0.85                0.85               0.006
       67                 0.8                 0.8                 0.4               0.006
       68                0.25                0.25                1.35               0.006
       69                 0.3                 0.3                 1.3               0.006
       70                0.35                0.35                1.25               0.006
       71                 0.4                 0.4                 1.2               0.006
       72                0.45                0.45                1.15               0.006
       73                 0.5                 0.5                 1.1               0.006
       74                0.55                0.55                1.05               0.006
       75                 0.6                 0.6                   1               0.003
       76                 1.5                   0                   0              0.0015
       77                0.45                0.95                0.95               0.006
       78                 0.4                 0.9                 0.9               0.006
       79                0.35                0.85                0.85               0.006
       80                 0.3                 0.8                 0.8               0.006
       81                0.25                0.25                1.25               0.006
       82                 0.3                 0.3                 1.2               0.006
       83                0.35                0.35                1.15               0.006
       84                 0.4                 0.4                 1.1               0.006
       85                0.45                0.45                1.05               0.006
       86                 0.5                 0.5                   1               0.003
       87                 1.4                   0                   0              0.0015
       88                0.35                0.95                0.95               0.006
       89                 0.9                 0.9                 0.3               0.006
       90                0.85                0.85                0.25               0.006
       91                 0.2                 0.8                 0.8               0.006
       92                0.25                0.25                1.15               0.006
       93                 0.3                 0.3                 1.1               0.006
       94                0.35                0.35                1.05               0.006
       95                 0.4                 0.4                   1               0.003
       96                 1.3                   0                   0              0.0015
       97                0.25                0.95                0.95               0.006
       98                 0.2                 0.9                 0.9               0.006
       99                0.15                0.85                0.85               0.006
      100                 0.1                 0.8                 0.8               0.006
      101                0.25                0.25                1.05               0.006
      102                 0.3                 0.3                   1               0.003
      103                   0                   0                 1.2              0.0015
      104                0.15                0.95                0.95               0.006
      105                 0.1                 0.9                 0.9               0.006
      106                0.05                0.85                0.85               0.006
      107                   0                 0.8                 0.8               0.003
      108                   0                   0                 1.1              0.0015
      109                0.05                0.95                0.95               0.006
      110                   0                 0.9                 0.9               0.003
      111                   1                   0                   0             0.00075
      112                 0.8                 0.9                   1               0.006
      113                0.75                0.85                1.05               0.012
      114                 0.7                 0.8                 1.1               0.012
      115                0.65                0.75                1.15               0.012
      116                 0.6                 0.7                 1.2               0.012
      117                0.55                0.65                1.25               0.012
      118                 0.5                 0.6                 1.3               0.012
      119                0.45                0.55                1.35               0.012
      120                 0.4                 0.5                 1.4               0.006
      121                 0.7                 0.9                   1               0.006
      122                0.65                0.85                1.05               0.012
      123                 0.6                 0.8                 1.1               0.012
      124                0.55                0.75                1.15               0.012
      125                 0.5                 0.7                 1.2               0.012
      126                0.45                0.65                1.25               0.012
      127                 0.4                 0.6                 1.3               0.012
      128                0.35                0.55                1.35               0.012
      129                 0.3                 0.5                 1.4               0.012
      130                0.45                0.55                1.25               0.012
      131                 0.5                 0.6                 1.2               0.012
      132                0.55                0.65                1.15               0.012
      133                 0.6                 0.7                 1.1               0.012
      134                0.65                0.75                1.05               0.012
      135                 0.7                 0.8                   1               0.006
      136                 0.6                 0.9                   1               0.006
      137                0.55                0.85                1.05               0.012
      138                 0.5                 0.8                 1.1               0.012
      139                0.45                1.15                0.75               0.012
      140                 0.4                 1.2                 0.7               0.012
      141                0.35                0.65                1.25               0.012
      142                 0.3                 0.6                 1.3               0.012
      143                0.25                0.55                1.35               0.012
      144                 0.2                 0.5                 1.4               0.012
      145                0.15                0.45                1.45               0.012
      146                 0.5                 0.6                 1.1               0.012
      147                0.55                0.65                1.05               0.012
      148                 0.6                 0.7                   1               0.006
      149                 0.5                 0.9                   1               0.006
      150                0.45                0.85                1.05               0.012
      151                 0.4                 1.1                 0.8               0.012
      152                0.35                0.75                1.15               0.012
      153                 0.3                 0.7                 1.2               0.012
      154                0.25                0.65                1.25               0.012
      155                 0.2                 0.6                 1.3               0.012
      156                0.15                0.55                1.35               0.012
      157                 0.1                 0.5                 1.4               0.012
      158                0.05                0.45                1.45               0.012
      159                   0                 0.4                 1.5               0.006
      160                 0.4                 0.9                   1               0.006
      161                0.35                0.85                1.05               0.012
      162                 0.3                 0.8                 1.1               0.012
      163                0.25                0.75                1.15               0.012
      164                 0.2                 0.7                 1.2               0.012
      165                0.15                0.65                1.25               0.012
      166                 0.1                 0.6                 1.3               0.012
      167                0.05                0.55                1.35               0.012
      168                   0                 0.5                 1.4               0.006
      169                 0.3                 0.9                   1               0.006
      170                0.25                0.85                1.05               0.012
      171                 0.2                 0.8                 1.1               0.012
      172                0.15                0.75                1.15               0.012
      173                 0.1                 0.7                 1.2               0.012
      174                0.05                0.65                1.25               0.012
      175                   0                 0.6                 1.3               0.006
      176                 0.2                 0.9                   1               0.006
      177                0.15                0.85                1.05               0.012
      178                 0.1                 0.8                 1.1               0.012
      179                0.05                0.75                1.15               0.012
      180                   0                 0.7                 1.2               0.006
      181                 0.1                 0.9                   1               0.006
      182                0.05                0.85                1.05               0.012
      183                   0                 0.8                 1.1               0.006
      184                   0                 0.9                   1               0.003
      185                 0.6                 0.8                   1               0.006
      186                0.55                0.75                1.05               0.012
      187                 0.5                 0.7                 1.1               0.012
      188                0.45                0.65                1.15               0.012
      189                 0.4                 0.6                 1.2               0.012
      190                0.35                0.55                1.25               0.012
      191                 0.3                 0.5                 1.3               0.006
      192                 0.5                 0.8                   1               0.006
      193                0.45                0.75                1.05               0.012
      194                 0.4                 0.7                 1.1               0.012
      195                0.35                0.65                1.15               0.012
      196                 0.3                 0.6                 1.2               0.012
      197                0.25                0.55                1.25               0.012
      198                 0.2                 0.5                 1.3               0.012
      199                0.35                0.55                1.15               0.012
      200                 0.4                 0.6                 1.1               0.012
      201                0.45                0.65                1.05               0.012
      202                 0.5                 0.7                   1               0.006
      203                 0.4                 0.8                   1               0.006
      204                0.35                0.75                1.05               0.012
      205                 0.3                 0.7                 1.1               0.012
      206                0.25                0.65                1.15               0.012
      207                 0.2                 0.6                 1.2               0.012
      208                0.15                0.55                1.25               0.012
      209                 0.1                 0.5                 1.3               0.012
      210                0.05                0.45                1.35               0.012
      211                 0.4                 0.6                   1               0.006
      212                 0.3                 0.8                   1               0.006
      213                0.25                0.75                1.05               0.012
      214                 0.2                 0.7                 1.1               0.012
      215                0.15                0.65                1.15               0.012
      216                 0.1                 0.6                 1.2               0.012
      217                0.05                0.55                1.25               0.012
      218                   0                 0.5                 1.3               0.006
      219                 0.2                 0.8                   1               0.006
[...]
       8        19.9239        0.00000
       9        20.9143        0.00000

 216/256 kpoint (Cartesian) = 0.100000 0.600000 1.20000 (1569 pws)
       1       -3.41666      0.0120000
       2        1.97712      0.0120000
       3        3.71128      0.0120000
       4        5.81605      0.0120000
       5        12.1232        0.00000
       6        15.7807        0.00000
       7        17.0636        0.00000
       8        18.8427        0.00000
       9        20.5456        0.00000

 217/256 kpoint (Cartesian) = 0.0500000 0.550000 1.25000 (1568 pws)
       1       -3.50689      0.0120000
       2        2.10136      0.0120000
       3        3.59448      0.0120000
       4        6.03590      0.0120000
       5        12.4109        0.00000
       6        15.8407        0.00000
       7        17.5002        0.00000
       8        18.1595        0.00000
       9        20.4225        0.00000

 218/256 kpoint (Cartesian) = 0.00000 0.500000 1.30000 (1566 pws)
       1       -3.71141     0.00600000
       2        2.25902     0.00600000
       3        3.75380     0.00600000
       4        6.32346     0.00600000
       5        12.7597        0.00000
       6        15.5247        0.00000
       7        16.6959        0.00000
       8        18.8996        0.00000
       9        20.2870        0.00000

 219/256 kpoint (Cartesian) = 0.200000 0.800000 1.00000 (1573 pws)
       1       -3.74083     0.00600000
       2        2.29219     0.00600000
       3        5.11752     0.00600000
       4        5.47668     0.00600000
       5        10.9702        0.00000
       6        12.4083        0.00000
       7        18.7487        0.00000
       8        21.6725        0.00000
       9        22.7824        0.00000

 220/256 kpoint (Cartesian) = 0.150000 0.750000 1.05000 (1575 pws)
       1       -3.50862      0.0120000
       2        2.07531      0.0120000
       3        4.62160      0.0120000
       4        5.33585      0.0120000
       5        11.2635        0.00000
       6        12.9778        0.00000
       7        18.3865        0.00000
       8        21.6580        0.00000
       9        22.2767        0.00000

 221/256 kpoint (Cartesian) = 0.100000 0.700000 1.10000 (1578 pws)
       1       -3.34755      0.0120000
       2        1.98648      0.0120000
       3        4.06528      0.0120000
       4        5.37417      0.0120000
       5        11.5034        0.00000
       6        13.8918        0.00000
       7        18.0513        0.00000
       8        20.4662        0.00000
       9        22.0253        0.00000

 222/256 kpoint (Cartesian) = 0.0500000 0.650000 1.15000 (1574 pws)
       1       -3.29121      0.0120000
       2        2.02989      0.0120000
       3        3.61380      0.0120000
       4        5.51498      0.0120000
       5        11.7534        0.00000
       6        14.9822        0.00000
       7        17.7639        0.00000
       8        19.1512        0.00000
       9        21.8027        0.00000

 223/256 kpoint (Cartesian) = 0.00000 0.600000 1.20000 (1569 pws)
       1       -3.35010     0.00600000
       2        2.12065     0.00600000
       3        3.40487     0.00600000
       4        5.74006     0.00600000
       5        12.0527        0.00000
       6        15.9585        0.00000
       7        17.5738        0.00000
       8        18.0882        0.00000
       9        21.3737        0.00000

 224/256 kpoint (Cartesian) = 0.100000 0.800000 1.00000 (1586 pws)
       1       -3.38425     0.00600000
       2        1.85875     0.00600000
       3        4.98806     0.00600000
       4        5.16381     0.00600000
       5        10.7186        0.00000
       6        12.2200        0.00000
       7        19.8024        0.00000
       8        22.2853        0.00000
       9        23.0139        0.00000

 225/256 kpoint (Cartesian) = 0.0500000 0.750000 1.05000 (1578 pws)
       1       -3.26713      0.0120000
       2        1.82831      0.0120000
       3        4.46012      0.0120000
       4        5.14844      0.0120000
       5        11.1033        0.00000
       6        12.8585        0.00000
       7        19.3851        0.00000
       8        20.8789        0.00000
       9        23.3042        0.00000

 226/256 kpoint (Cartesian) = 0.00000 0.700000 1.10000 (1579 pws)
       1       -3.23586     0.00600000
       2        1.91954     0.00600000
       3        3.92745     0.00600000
       4        5.28874     0.00600000
       5        11.4267        0.00000
       6        13.8370        0.00000
       7        18.7894        0.00000
       8        19.7147        0.00000
       9        22.9389        0.00000

 227/256 kpoint (Cartesian) = 0.00000 0.800000 1.00000 (1580 pws)
       1       -3.24609     0.00300000
       2        1.69373     0.00300000
       3        4.96414     0.00300000
       4        5.03937     0.00300000
       5        10.6343        0.00000
       6        12.1581        0.00000
       7        20.5823        0.00000
       8        21.5217        0.00000
       9        24.0255        0.00000

 228/256 kpoint (Cartesian) = 0.400000 0.700000 1.00000 (1573 pws)
       1       -4.52109     0.00600000
       2        3.14307     0.00600000
       3        5.12625     0.00600000
       4        6.77270     0.00600000
       5        12.9463        0.00000
       6        14.2321        0.00000
       7        15.3635        0.00000
       8        18.7221        0.00000
       9        20.0854        0.00000

 229/256 kpoint (Cartesian) = 0.350000 0.650000 1.05000 (1572 pws)
       1       -4.19447      0.0120000
       2        2.66412      0.0120000
       3        4.73361      0.0120000
       4        6.47500      0.0120000
       5        13.0997        0.00000
       6        14.5897        0.00000
       7        15.2680        0.00000
       8        18.9806        0.00000
       9        20.7171        0.00000

 230/256 kpoint (Cartesian) = 0.300000 0.600000 1.10000 (1571 pws)
       1       -3.89416      0.0120000
       2        2.20176      0.0120000
       3        4.50861      0.0120000
       4        6.21883      0.0120000
       5        13.1489        0.00000
       6        14.5225        0.00000
       7        15.9744        0.00000
       8        18.9503        0.00000
       9        21.1113        0.00000

 231/256 kpoint (Cartesian) = 0.250000 0.550000 1.15000 (1568 pws)
       1       -3.67418      0.0120000
       2        1.86201      0.0120000
       3        4.39986      0.0120000
       4        6.04724      0.0120000
       5        13.1761        0.00000
       6        14.3506        0.00000
       7        17.0326        0.00000
       8        18.7828        0.00000
       9        20.2759        0.00000

 232/256 kpoint (Cartesian) = 0.200000 0.500000 1.20000 (1564 pws)
       1       -3.59195     0.00600000
       2        1.73629     0.00600000
       3        4.36821     0.00600000
       4        5.98687     0.00600000
       5        13.1881        0.00000
       6        14.2816        0.00000
       7        17.9413        0.00000
       8        18.3210        0.00000
       9        19.7571        0.00000

 233/256 kpoint (Cartesian) = 0.300000 0.700000 1.00000 (1569 pws)
       1       -4.06838     0.00600000
       2        2.66554     0.00600000
       3        4.78678     0.00600000
       4        5.99378     0.00600000
       5        12.4309        0.00000
       6        13.8152        0.00000
       7        16.1348        0.00000
       8        20.1434        0.00000
       9        21.3343        0.00000

 234/256 kpoint (Cartesian) = 0.250000 0.650000 1.05000 (1572 pws)
       1       -3.78073      0.0120000
       2        2.34254      0.0120000
       3        4.40851      0.0120000
       4        5.71004      0.0120000
       5        12.6875        0.00000
       6        14.4159        0.00000
       7        15.8550        0.00000
       8        20.3053        0.00000
       9        21.4064        0.00000

 235/256 kpoint (Cartesian) = 0.200000 0.600000 1.10000 (1575 pws)
       1       -3.55535      0.0120000
       2        2.08477      0.0120000
       3        4.13157      0.0120000
       4        5.54113      0.0120000
       5        12.8544        0.00000
       6        14.9817        0.00000
       7        15.9776        0.00000
       8        19.6977        0.00000
       9        20.9019        0.00000

 236/256 kpoint (Cartesian) = 0.150000 0.550000 1.15000 (1573 pws)
       1       -3.44267      0.0120000
       2        1.96205      0.0120000
       3        3.94840      0.0120000
       4        5.51129      0.0120000
       5        13.0182        0.00000
       6        14.9727        0.00000
       7        16.8837        0.00000
       8        18.5523        0.00000
       9        20.7066        0.00000

 237/256 kpoint (Cartesian) = 0.100000 0.500000 1.20000 (1570 pws)
       1       -3.47414      0.0120000
       2        2.01173      0.0120000
       3        3.87304      0.0120000
       4        5.61488      0.0120000
       5        13.1968        0.00000
       6        14.8581        0.00000
       7        17.0858        0.00000
       8        18.3236        0.00000
       9        20.6663        0.00000

 238/256 kpoint (Cartesian) = 0.250000 0.550000 1.05000 (1568 pws)
       1       -3.63985      0.0120000
       2        2.20079      0.0120000
       3        3.94787      0.0120000
       4        5.83101      0.0120000
       5        13.3563        0.00000
       6        14.7991        0.00000
       7        16.0508        0.00000
       8        19.3777        0.00000
       9        20.7368        0.00000

 239/256 kpoint (Cartesian) = 0.300000 0.600000 1.00000 (1569 pws)
       1       -3.89649     0.00600000
       2        2.44041     0.00600000
       3        4.22925     0.00600000
       4        6.13104     0.00600000
       5        13.3854        0.00000
       6        14.7523        0.00000
       7        15.3088        0.00000
       8        19.7243        0.00000
       9        20.7411        0.00000

 240/256 kpoint (Cartesian) = 0.200000 0.700000 1.00000 (1576 pws)
       1       -3.64773     0.00600000
       2        2.27123     0.00600000
       3        4.55910     0.00600000
       4        5.33272     0.00600000
       5        12.0545        0.00000
       6        13.5253        0.00000
       7        17.0272        0.00000
       8        21.3189        0.00000
       9        21.8002        0.00000

 241/256 kpoint (Cartesian) = 0.150000 0.650000 1.05000 (1575 pws)
       1       -3.43765      0.0120000
       2        2.12677      0.0120000
       3        4.17351      0.0120000
       4        5.11826      0.0120000
       5        12.4082        0.00000
       6        14.2251        0.00000
       7        16.7113        0.00000
       8        20.1299        0.00000
       9        22.0677        0.00000

 242/256 kpoint (Cartesian) = 0.100000 0.600000 1.10000 (1578 pws)
       1       -3.31884      0.0120000
       2        2.08374      0.0120000
       3        3.80752      0.0120000
       4        5.10652      0.0120000
       5        12.6676        0.00000
       6        15.1244        0.00000
       7        16.5545        0.00000
       8        18.7661        0.00000
       9        22.0522        0.00000

 243/256 kpoint (Cartesian) = 0.0500000 0.550000 1.15000 (1577 pws)
       1       -3.31854      0.0120000
       2        2.13087      0.0120000
       3        3.58102      0.0120000
       4        5.24398      0.0120000
       5        12.9190        0.00000
       6        15.5883        0.00000
       7        16.9556        0.00000
       8        17.5859        0.00000
       9        21.9247        0.00000

 244/256 kpoint (Cartesian) = 0.00000 0.500000 1.20000 (1578 pws)
       1       -3.43504     0.00600000
       2        2.19032     0.00600000
       3        3.61204     0.00600000
       4        5.49454     0.00600000
       5        13.1768        0.00000
       6        15.3730        0.00000
       7        16.4548        0.00000
       8        18.2759        0.00000
       9        21.5314        0.00000

 245/256 kpoint (Cartesian) = 0.100000 0.700000 1.00000 (1577 pws)
       1       -3.33553     0.00600000
       2        1.99379     0.00600000
       3        4.45640     0.00600000
       4        4.86663     0.00600000
       5        11.8276        0.00000
       6        13.3538        0.00000
       7        18.0041        0.00000
       8        20.4739        0.00000
       9        23.0682        0.00000

 246/256 kpoint (Cartesian) = 0.0500000 0.650000 1.05000 (1582 pws)
       1       -3.23811      0.0120000
       2        2.01863      0.0120000
       3        4.04058      0.0120000
       4        4.80085      0.0120000
       5        12.2681        0.00000
       6        14.1235        0.00000
       7        17.6406        0.00000
       8        19.0772        0.00000
       9        23.3852        0.00000

 247/256 kpoint (Cartesian) = 0.00000 0.600000 1.10000 (1586 pws)
       1       -3.23344     0.00600000
       2        2.10877     0.00600000
       3        3.66186     0.00600000
       4        4.96380     0.00600000
       5        12.6044        0.00000
       6        15.1257        0.00000
       7        17.2197        0.00000
       8        17.9584        0.00000
       9        23.0391        0.00000

 248/256 kpoint (Cartesian) = 0.00000 0.700000 1.00000 (1574 pws)
       1       -3.21762     0.00300000
       2        1.89047     0.00300000
       3        4.45495     0.00300000
       4        4.67289     0.00300000
       5        11.7520        0.00000
       6        13.2969        0.00000
       7        18.7471        0.00000
       8        19.6761        0.00000
       9        24.1395        0.00000

 249/256 kpoint (Cartesian) = 0.200000 0.600000 1.00000 (1562 pws)
       1       -3.53965     0.00600000
       2        2.23437     0.00600000
       3        4.02880     0.00600000
       4        5.33788     0.00600000
       5        13.1810        0.00000
       6        14.8138        0.00000
       7        15.6116        0.00000
       8        19.8073        0.00000
       9        21.6535        0.00000

 250/256 kpoint (Cartesian) = 0.150000 0.550000 1.05000 (1578 pws)
       1       -3.36961      0.0120000
       2        2.15428      0.0120000
       3        3.79816      0.0120000
       4        5.08617      0.0120000
       5        13.4224        0.00000
       6        15.1415        0.00000
       7        15.9521        0.00000
       8        18.4831        0.00000
       9        22.0179        0.00000

 251/256 kpoint (Cartesian) = 0.100000 0.500000 1.10000 (1578 pws)
       1       -3.30770     0.00600000
       2        2.12289     0.00600000
       3        3.72260     0.00600000
       4        4.99731     0.00600000
       5        13.4871        0.00000
       6        15.1262        0.00000
       7        16.7556        0.00000
       8        17.4747        0.00000
       9        22.0759        0.00000

 252/256 kpoint (Cartesian) = 0.100000 0.600000 1.00000 (1574 pws)
       1       -3.28656     0.00600000
       2        2.13049     0.00600000
       3        3.97722     0.00600000
       4        4.71130     0.00600000
       5        13.0256        0.00000
       6        14.7003        0.00000
       7        16.4122        0.00000
       8        18.7260        0.00000
       9        23.1059        0.00000

 253/256 kpoint (Cartesian) = 0.0500000 0.550000 1.05000 (1579 pws)
       1       -3.21984      0.0120000
       2        2.17070      0.0120000
       3        3.77777      0.0120000
       4        4.59132      0.0120000
       5        13.4038        0.00000
       6        15.4149        0.00000
       7        16.3340        0.00000
       8        17.4126        0.00000
       9        23.4420        0.00000

 254/256 kpoint (Cartesian) = 0.00000 0.500000 1.10000 (1578 pws)
       1       -3.25004     0.00600000
       2        2.19452     0.00600000
       3        3.67392     0.00600000
       4        4.74768     0.00600000
       5        13.5689        0.00000
       6        15.5336        0.00000
       7        16.3055        0.00000
       8        17.2070        0.00000
       9        23.1000        0.00000

 255/256 kpoint (Cartesian) = 0.00000 0.600000 1.00000 (1584 pws)
       1       -3.19412     0.00300000
       2        2.10169     0.00300000
       3        4.02522     0.00300000
       4        4.41985     0.00300000
       5        12.9705        0.00000
       6        14.6548        0.00000
       7        17.1099        0.00000
       8        17.9145        0.00000
       9        24.2452        0.00000

 256/256 kpoint (Cartesian) = 0.00000 0.500000 1.00000 (1564 pws)
       1       -3.18503     0.00150000
       2        2.20572     0.00150000
       3        3.84395     0.00150000
       4        4.33063     0.00150000
       5        13.7167        0.00000
       6        15.9286        0.00000
       7        16.2258        0.00000
       8        16.5092        0.00000
       9        24.2894        0.00000



 --------------------------------------------
 !FINAL_ETOT_IS -239.6525448858579 eV
 --------------------------------------------






  |CLASS_NAME---------|NAME---------------|TIME(Sec)-----|CALLS----|AVG------|PER%-------
                                      total         131.72        17       7.7   1.0e+02%
                 Driver         driver_line         131.71         1   1.3e+02    1.e+02%
               PW_Basis      setuptransform        0.16743         1      0.17      0.13%
          ESolver_KS_PW                 Run         131.22         1   1.3e+02    1.e+02%
              Potential  update_from_charge        0.29783         9     0.033      0.23%
              Potential           cal_v_eff        0.29684         9     0.033      0.23%
                  PotXC           cal_v_eff        0.27783         9     0.031      0.21%
          XC_Functional                v_xc         75.485         5       15.       57.%
          XC_Functional          v_xc_libxc        0.27561         9     0.031      0.21%
              HSolverPW               solve         130.84         8       16.       99.%
        DiagoIterAssist      diagH_subspace         24.816      2048     0.012       19.%
             OperatorPW                hPsi         119.11     76097    0.0016       90.%
               Operator          EkineticPW        0.32755     76097   4.3e-06      0.25%
               Operator              VeffPW         118.57     76097    0.0016       90.%
             PW_Basis_K          recip2real         67.424    100673   0.00067       51.%
             PW_Basis_K    gathers_scatterp         5.9638    100673   5.9e-05       4.5%
             PW_Basis_K          real2recip         50.284     92481   0.00054       38.%
             PW_Basis_K    gatherp_scatters        0.99564     92481   1.1e-05      0.76%
        DiagoIterAssist     LAPACK_subspace        0.10892      2048   5.3e-05     0.083%
                DiagoCG           diag_once         99.260      2048     0.048       75.%
            ElecStatePW            psiToRho         6.0763         8      0.76       4.6%
 ----------------------------------------------------------------------------------------

 CLASS_NAME---------|NAME---------------|MEMORY(MB)--------
                                         67.70
             wavefunc                 psi          56.11
        Charge_Mixing                Rrho          2.848
        Charge_Mixing               dRrho          2.492
        Charge_Mixing                drho          2.492
 ----------------------------------------------------------

 Start  Time  : Wed Mar 22 11:42:11 2023
 Finish Time  : Wed Mar 22 11:44:22 2023
 Total  Time  : 0 h 2 mins 11 secs 
