                                                                                     
                             WELCOME TO ABACUS                                       
                                                                                     
               'Atomic-orbital Based Ab-initio Computation at UStc'                  
                                                                                     
                     Website: http://abacus.ustc.edu.cn/                             
                                                                                     
    Version: Parallel, in development
    Processor Number is 1
    Start Time is Fri Sep 10 11:31:50 2021
                                                                                     
 ------------------------------------------------------------------------------------

 READING GENERAL INFORMATION
                           global_out_dir = OUT.blpstest/
                           global_in_card = INPUT
                               pseudo_dir = ./
                              orbital_dir = ./
                              pseudo_type = blps
                                    DRANK = 1
                                    DSIZE = 1
                                   DCOLOR = 1
                                    GRANK = 1
                                    GSIZE = 1




 >>>>>>>>>>>>>>>>>>>>>>>>>>>>>>>>>>>>>>>>>>>>>>>>>>>>>>>>>>>>>>>>>>>>>>
 |                                                                    |
 | Reading atom information in unitcell:                              |
 | From the input file and the structure file we know the number of   |
 | different elments in this unitcell, then we list the detail        |
 | information for each element, especially the zeta and polar atomic |
 | orbital number for each element. The total atom number is counted. |
 | We calculate the nearest atom distance for each atom and show the  |
 | Cartesian and Direct coordinates for each atom. We list the file   |
 | address for atomic orbitals. The volume and the lattice vectors    |
 | in real and reciprocal space is also shown.                        |
 |                                                                    |
 <<<<<<<<<<<<<<<<<<<<<<<<<<<<<<<<<<<<<<<<<<<<<<<<<<<<<<<<<<<<<<<<<<<<<<




 READING UNITCELL INFORMATION
                                    ntype = 1
                 atom label for species 1 = Si
                  lattice constant (Bohr) = 7.58372
              lattice constant (Angstrom) = 4.01313

 READING ATOM TYPE 1
                               atom label = Si
                      L=0, number of zeta = 1
                      L=1, number of zeta = 1
                      L=2, number of zeta = 1
             number of atom for this type = 1
                      start magnetization = FALSE

                        TOTAL ATOM NUMBER = 1

 DIRECT COORDINATES
         atom                   x                   y                   z                 mag                  vx                  vy                  vz
     taud_Si1                   0                   0                   0                   0                   0                   0                   0


                          Volume (Bohr^3) = 109.04
                             Volume (A^3) = 16.1581

 Lattice vectors: (Cartesian coordinate: in unit of a_0)
                   +0                +0.5                +0.5
                 +0.5                  +0                +0.5
                 +0.5                +0.5                  +0
 Reciprocal vectors: (Cartesian coordinate: in unit of 2 pi/a_0)
                   -1                  +1                  +1
                   +1                  -1                  +1
                   +1                  +1                  -1




 >>>>>>>>>>>>>>>>>>>>>>>>>>>>>>>>>>>>>>>>>>>>>>>>>>>>>>>>>>>>>>>>>>>>>>
 |                                                                    |
 | Reading pseudopotentials files:                                    |
 | The pseudopotential file is in UPF format. The 'NC' indicates that |
 | the type of pseudopotential is 'norm conserving'. Functional of    |
 | exchange and correlation is decided by 4 given parameters in UPF   |
 | file.  We also read in the 'core correction' if there exists.      |
 | Also we can read the valence electrons number and the maximal      |
 | angular momentum used in this pseudopotential. We also read in the |
 | trail wave function, trail atomic density and local-pseudopotential|
 | on logrithmic grid. The non-local pseudopotential projector is also|
 | read in if there is any.                                           |
 |                                                                    |
 <<<<<<<<<<<<<<<<<<<<<<<<<<<<<<<<<<<<<<<<<<<<<<<<<<<<<<<<<<<<<<<<<<<<<<




                PAO radial cut off (Bohr) = 16

 Read in pseudopotential file is si.lda.lps
                     pseudopotential type = 
                            functional Ex = LDA
                            functional Ec = LDA
                          functional GCEx = NOGX
                          functional GCEc = NOGC
                 nonlocal core correction = 0
                        valence electrons = 4
                                     lmax = 0
                           number of zeta = 0
                     number of projectors = 0
     initial pseudo atomic orbital number = 0
                                   NLOCAL = 9

 SETUP THE ELECTRONS NUMBER
            electron number of element Si = 4
      total electron number of element Si = 4
                           occupied bands = 2
                                   NBANDS = 12
 DONE : SETUP UNITCELL Time : 0.0165789 (SEC)





 >>>>>>>>>>>>>>>>>>>>>>>>>>>>>>>>>>>>>>>>>>>>>>>>>>>>>>>>>>>>>>>>>>>>>>
 |                                                                    |
 | Doing symmetry analysis:                                           |
 | We calculate the norm of 3 vectors and the angles between them,    |
 | the type of Bravais lattice is given. We can judge if the unticell |
 | is a primitive cell. Finally we give the point group operation for |
 | this unitcell. We we use the point group operations to do symmetry |
 | analysis on given k-point mesh and the charge density.             |
 |                                                                    |
 <<<<<<<<<<<<<<<<<<<<<<<<<<<<<<<<<<<<<<<<<<<<<<<<<<<<<<<<<<<<<<<<<<<<<<




 LATTICE VECTORS: (CARTESIAN COORDINATE: IN UNIT OF A0)
                   +0                +0.5                +0.5
                 +0.5                  +0                +0.5
                 +0.5                +0.5                  +0
                       right hand lattice = 1
                                   NORM_A = 0.707107
                                   NORM_B = 0.707107
                                   NORM_C = 0.707107
                           ALPHA (DEGREE) = 60
                           BETA  (DEGREE) = 60
                           GAMMA (DEGREE) = 60
                             BRAVAIS TYPE = 3
                     BRAVAIS LATTICE NAME = 03. Cubic F (face-centered)
 STANDARD LATTICE VECTORS: (CARTESIAN COORDINATE: IN UNIT OF A0)
                   +0                +0.5                +0.5
                 +0.5                  +0                +0.5
                 +0.5                +0.5                  +0
                                    IBRAV = 3
                                  BRAVAIS = FACE CENTERED CUBIC
                       LATTICE CONSTANT A = 4.12311
                                    ibrav = 3
                        ROTATION MATRICES = 48
              PURE POINT GROUP OPERATIONS = 48
                   SPACE GROUP OPERATIONS = 48
                              POINT GROUP = O_h
 DONE : SYMMETRY Time : 0.07215 (SEC)





 >>>>>>>>>>>>>>>>>>>>>>>>>>>>>>>>>>>>>>>>>>>>>>>>>>>>>>>>>>>>>>>>>>>>>>
 |                                                                    |
 | Setup K-points                                                     |
 | We setup the k-points according to input parameters.               |
 | The reduced k-points are set according to symmetry operations.     |
 | We treat the spin as another set of k-points.                      |
 |                                                                    |
 <<<<<<<<<<<<<<<<<<<<<<<<<<<<<<<<<<<<<<<<<<<<<<<<<<<<<<<<<<<<<<<<<<<<<<





 SETUP K-POINTS
                                    nspin = 1
                   Input type of k points = Monkhorst-Pack(Gamma)
                                   nkstot = 4096
                               nkstot_ibz = 145
      IBZ             DirectX             DirectY             DirectZ              Weight    ibz2bz
        1                   0                   0                   0         0.000244141         0
        2              0.9375              0.9375              0.9375          0.00195312         1
        3               0.875               0.875               0.875          0.00195312         2
        4              0.8125              0.8125              0.8125          0.00195312         3
        5                0.75                0.75                0.75          0.00195312         4
        6              0.6875              0.6875              0.6875          0.00195312         5
        7               0.625               0.625               0.625          0.00195312         6
        8              0.5625              0.5625              0.5625          0.00195312         7
        9                 0.5                 0.5                 0.5         0.000976562         8
       10              0.9375              0.9375                   0          0.00146484        17
       11              0.9375               0.875               0.875          0.00585938        18
       12               0.875              0.8125              0.8125          0.00585938        19
       13              0.9375              0.9375              0.1875          0.00585938        20
       14              0.9375              0.9375                0.25          0.00585938        21
       15              0.9375              0.9375              0.3125          0.00585938        22
       16              0.9375              0.9375               0.375          0.00585938        23
       17              0.9375              0.9375              0.4375          0.00585938        24
       18              0.9375              0.9375                 0.5          0.00585938        25
       19              0.9375              0.9375              0.5625          0.00585938        26
       20              0.9375              0.9375               0.625          0.00585938        27
       21              0.9375              0.9375              0.6875          0.00585938        28
       22              0.9375              0.9375                0.75          0.00585938        29
       23              0.9375              0.9375              0.8125          0.00585938        30
       24              0.9375              0.9375               0.875          0.00292969        31
       25               0.875               0.875                   0          0.00146484        34
       26              0.9375              0.8125              0.8125          0.00585938        35
       27               0.875                0.75                0.75          0.00585938        36
       28              0.8125              0.6875              0.6875          0.00585938        37
       29               0.875               0.875                0.25          0.00585938        38
       30               0.875               0.875              0.3125          0.00585938        39
       31               0.875               0.875               0.375          0.00585938        40
       32               0.875               0.875              0.4375          0.00585938        41
       33               0.875               0.875                 0.5          0.00585938        42
       34               0.875               0.875              0.5625          0.00585938        43
       35               0.875               0.875               0.625          0.00585938        44
       36               0.875               0.875              0.6875          0.00585938        45
       37               0.875               0.875                0.75          0.00292969        46
       38              0.8125              0.8125                   0          0.00146484        51
       39              0.9375                0.75                0.75          0.00585938        52
       40               0.875              0.6875              0.6875          0.00585938        53
       41              0.8125               0.625               0.625          0.00585938        54
       42              0.8125              0.8125                0.25          0.00585938        55
       43              0.8125              0.8125              0.3125          0.00585938        56
       44              0.8125              0.8125               0.375          0.00585938        57
       45              0.8125              0.8125              0.4375          0.00585938        58
       46              0.8125              0.8125                 0.5          0.00585938        59
       47              0.8125              0.8125              0.5625          0.00585938        60
       48              0.8125              0.8125               0.625          0.00292969        61
       49                0.75                0.75                   0          0.00146484        68
       50              0.9375              0.6875              0.6875          0.00585938        69
       51               0.875               0.625               0.625          0.00585938        70
       52              0.8125              0.5625              0.5625          0.00585938        71
       53                0.75                0.75                0.25          0.00585938        72
       54                0.75                0.75              0.3125          0.00585938        73
       55                0.75                0.75               0.375          0.00585938        74
       56                0.75                0.75              0.4375          0.00585938        75
       57                0.75                0.75                 0.5          0.00292969        76
       58              0.6875              0.6875                   0          0.00146484        85
       59              0.9375               0.625               0.625          0.00585938        86
       60               0.875              0.5625              0.5625          0.00585938        87
       61              0.8125                 0.5                 0.5          0.00585938        88
       62              0.6875              0.6875                0.25          0.00585938        89
       63              0.6875              0.6875              0.3125          0.00585938        90
       64              0.6875              0.6875               0.375          0.00292969        91
       65               0.625               0.625                   0          0.00146484       102
       66              0.9375              0.5625              0.5625          0.00585938       103
       67               0.875                 0.5                 0.5          0.00585938       104
       68              0.8125              0.4375              0.4375          0.00585938       105
       69               0.625               0.625                0.25          0.00292969       106
       70              0.5625              0.5625                   0          0.00146484       119
       71              0.9375                 0.5                 0.5          0.00585938       120
       72               0.875              0.4375              0.4375          0.00292969       121
       73                   0                 0.5                 0.5         0.000732422       136
       74              0.9375               0.875              0.8125          0.00585938       291
       75              0.9375               0.875                0.75           0.0117188       292
       76              0.9375               0.875              0.6875           0.0117188       293
       77              0.9375               0.875               0.625           0.0117188       294
       78              0.9375               0.875              0.5625           0.0117188       295
       79              0.9375               0.875                 0.5           0.0117188       296
       80              0.9375               0.875              0.4375          0.00585938       297
       81              0.9375              0.8125                0.75          0.00585938       308
       82              0.9375              0.8125              0.6875           0.0117188       309
       83              0.9375              0.8125               0.625           0.0117188       310
       84              0.9375              0.8125              0.5625           0.0117188       311
       85              0.9375              0.8125                 0.5           0.0117188       312
       86              0.9375              0.8125              0.4375           0.0117188       313
       87              0.9375              0.8125               0.375           0.0117188       314
       88               0.875              0.8125                 0.5           0.0117188       315
       89               0.875              0.8125              0.5625           0.0117188       316
       90               0.875              0.8125               0.625           0.0117188       317
       91               0.875              0.8125              0.6875          0.00585938       318
       92              0.9375                0.75              0.6875          0.00585938       325
       93              0.9375                0.75               0.625           0.0117188       326
       94              0.9375                0.75              0.5625           0.0117188       327
       95              0.9375                0.75                 0.5           0.0117188       328
       96              0.9375                0.75              0.4375           0.0117188       329
       97              0.9375                0.75               0.375           0.0117188       330
       98              0.9375                0.75              0.3125           0.0117188       331
       99              0.9375                0.75                0.25           0.0117188       332
      100              0.8125                0.75              0.5625          0.00585938       333
      101              0.9375              0.6875               0.625          0.00585938       342
      102              0.9375              0.6875              0.5625           0.0117188       343
      103              0.9375              0.6875                 0.5           0.0117188       344
      104              0.9375              0.6875              0.4375           0.0117188       345
      105              0.9375              0.6875               0.375           0.0117188       346
      106              0.9375              0.6875              0.3125           0.0117188       347
      107              0.9375              0.6875                0.25          0.00585938       348
      108              0.9375               0.625              0.5625          0.00585938       359
      109              0.9375               0.625                 0.5           0.0117188       360
      110              0.9375               0.625              0.4375           0.0117188       361
      111              0.9375               0.625               0.375           0.0117188       362
      112              0.9375               0.625              0.3125          0.00585938       363
      113              0.9375              0.5625                 0.5          0.00585938       376
      114              0.9375              0.5625              0.4375           0.0117188       377
      115              0.9375              0.5625               0.375          0.00585938       378
      116              0.9375                 0.5              0.4375          0.00292969       393
      117               0.875                0.75               0.625          0.00585938       582
      118               0.875                0.75              0.5625           0.0117188       583
      119               0.875                0.75                 0.5           0.0117188       584
      120               0.875                0.75              0.4375           0.0117188       585
      121               0.875                0.75               0.375          0.00585938       586
      122               0.875              0.6875              0.5625          0.00585938       599
      123               0.875              0.6875                 0.5           0.0117188       600
      124               0.875              0.6875              0.4375           0.0117188       601
      125               0.875              0.6875               0.375           0.0117188       602
      126               0.875              0.6875              0.3125           0.0117188       603
      127              0.8125              0.6875              0.4375           0.0117188       604
      128              0.8125              0.6875                 0.5          0.00585938       605
      129               0.875               0.625                 0.5          0.00585938       616
      130               0.875               0.625              0.4375           0.0117188       617
      131               0.875               0.625               0.375           0.0117188       618
      132               0.875               0.625              0.3125           0.0117188       619
      133               0.875               0.625                0.25          0.00585938       620
      134               0.875              0.5625              0.4375          0.00585938       633
      135               0.875              0.5625               0.375           0.0117188       634
      136               0.875              0.5625              0.3125          0.00585938       635
      137               0.875                 0.5               0.375          0.00292969       650
      138              0.8125               0.625              0.4375          0.00585938       873
      139              0.8125               0.625               0.375           0.0117188       874
      140              0.8125               0.625              0.3125          0.00585938       875
      141              0.8125              0.5625               0.375          0.00585938       890
      142              0.8125              0.5625              0.3125           0.0117188       891
      143              0.8125              0.5625                0.25          0.00585938       892
      144              0.8125                 0.5              0.3125          0.00292969       907
      145                0.25                 0.5                0.75          0.00146484      1164
                               nkstot now = 145

  KPOINTS            DIRECT_X            DIRECT_Y            DIRECT_Z              WEIGHT
        1                   0                   0                   0         0.000244141
        2              0.9375              0.9375              0.9375          0.00195312
        3               0.875               0.875               0.875          0.00195312
        4              0.8125              0.8125              0.8125          0.00195312
        5                0.75                0.75                0.75          0.00195312
        6              0.6875              0.6875              0.6875          0.00195312
        7               0.625               0.625               0.625          0.00195312
        8              0.5625              0.5625              0.5625          0.00195312
        9                 0.5                 0.5                 0.5         0.000976562
       10              0.9375              0.9375                   0          0.00146484
       11              0.9375               0.875               0.875          0.00585938
       12               0.875              0.8125              0.8125          0.00585938
       13              0.9375              0.9375              0.1875          0.00585938
       14              0.9375              0.9375                0.25          0.00585938
       15              0.9375              0.9375              0.3125          0.00585938
       16              0.9375              0.9375               0.375          0.00585938
       17              0.9375              0.9375              0.4375          0.00585938
       18              0.9375              0.9375                 0.5          0.00585938
       19              0.9375              0.9375              0.5625          0.00585938
       20              0.9375              0.9375               0.625          0.00585938
       21              0.9375              0.9375              0.6875          0.00585938
       22              0.9375              0.9375                0.75          0.00585938
       23              0.9375              0.9375              0.8125          0.00585938
       24              0.9375              0.9375               0.875          0.00292969
       25               0.875               0.875                   0          0.00146484
       26              0.9375              0.8125              0.8125          0.00585938
       27               0.875                0.75                0.75          0.00585938
       28              0.8125              0.6875              0.6875          0.00585938
       29               0.875               0.875                0.25          0.00585938
       30               0.875               0.875              0.3125          0.00585938
       31               0.875               0.875               0.375          0.00585938
       32               0.875               0.875              0.4375          0.00585938
       33               0.875               0.875                 0.5          0.00585938
       34               0.875               0.875              0.5625          0.00585938
       35               0.875               0.875               0.625          0.00585938
       36               0.875               0.875              0.6875          0.00585938
       37               0.875               0.875                0.75          0.00292969
       38              0.8125              0.8125                   0          0.00146484
       39              0.9375                0.75                0.75          0.00585938
       40               0.875              0.6875              0.6875          0.00585938
       41              0.8125               0.625               0.625          0.00585938
       42              0.8125              0.8125                0.25          0.00585938
       43              0.8125              0.8125              0.3125          0.00585938
       44              0.8125              0.8125               0.375          0.00585938
       45              0.8125              0.8125              0.4375          0.00585938
       46              0.8125              0.8125                 0.5          0.00585938
       47              0.8125              0.8125              0.5625          0.00585938
       48              0.8125              0.8125               0.625          0.00292969
       49                0.75                0.75                   0          0.00146484
       50              0.9375              0.6875              0.6875          0.00585938
       51               0.875               0.625               0.625          0.00585938
       52              0.8125              0.5625              0.5625          0.00585938
       53                0.75                0.75                0.25          0.00585938
       54                0.75                0.75              0.3125          0.00585938
       55                0.75                0.75               0.375          0.00585938
       56                0.75                0.75              0.4375          0.00585938
       57                0.75                0.75                 0.5          0.00292969
       58              0.6875              0.6875                   0          0.00146484
       59              0.9375               0.625               0.625          0.00585938
       60               0.875              0.5625              0.5625          0.00585938
       61              0.8125                 0.5                 0.5          0.00585938
       62              0.6875              0.6875                0.25          0.00585938
       63              0.6875              0.6875              0.3125          0.00585938
       64              0.6875              0.6875               0.375          0.00292969
       65               0.625               0.625                   0          0.00146484
       66              0.9375              0.5625              0.5625          0.00585938
       67               0.875                 0.5                 0.5          0.00585938
       68              0.8125              0.4375              0.4375          0.00585938
       69               0.625               0.625                0.25          0.00292969
       70              0.5625              0.5625                   0          0.00146484
       71              0.9375                 0.5                 0.5          0.00585938
       72               0.875              0.4375              0.4375          0.00292969
       73                   0                 0.5                 0.5         0.000732422
       74              0.9375               0.875              0.8125          0.00585938
       75              0.9375               0.875                0.75           0.0117188
       76              0.9375               0.875              0.6875           0.0117188
       77              0.9375               0.875               0.625           0.0117188
       78              0.9375               0.875              0.5625           0.0117188
       79              0.9375               0.875                 0.5           0.0117188
       80              0.9375               0.875              0.4375          0.00585938
       81              0.9375              0.8125                0.75          0.00585938
       82              0.9375              0.8125              0.6875           0.0117188
       83              0.9375              0.8125               0.625           0.0117188
       84              0.9375              0.8125              0.5625           0.0117188
       85              0.9375              0.8125                 0.5           0.0117188
       86              0.9375              0.8125              0.4375           0.0117188
       87              0.9375              0.8125               0.375           0.0117188
       88               0.875              0.8125                 0.5           0.0117188
       89               0.875              0.8125              0.5625           0.0117188
       90               0.875              0.8125               0.625           0.0117188
       91               0.875              0.8125              0.6875          0.00585938
       92              0.9375                0.75              0.6875          0.00585938
       93              0.9375                0.75               0.625           0.0117188
       94              0.9375                0.75              0.5625           0.0117188
       95              0.9375                0.75                 0.5           0.0117188
       96              0.9375                0.75              0.4375           0.0117188
       97              0.9375                0.75               0.375           0.0117188
       98              0.9375                0.75              0.3125           0.0117188
       99              0.9375                0.75                0.25           0.0117188
      100              0.8125                0.75              0.5625          0.00585938
      101              0.9375              0.6875               0.625          0.00585938
      102              0.9375              0.6875              0.5625           0.0117188
      103              0.9375              0.6875                 0.5           0.0117188
      104              0.9375              0.6875              0.4375           0.0117188
      105              0.9375              0.6875               0.375           0.0117188
      106              0.9375              0.6875              0.3125           0.0117188
      107              0.9375              0.6875                0.25          0.00585938
      108              0.9375               0.625              0.5625          0.00585938
      109              0.9375               0.625                 0.5           0.0117188
      110              0.9375               0.625              0.4375           0.0117188
      111              0.9375               0.625               0.375           0.0117188
      112              0.9375               0.625              0.3125          0.00585938
      113              0.9375              0.5625                 0.5          0.00585938
      114              0.9375              0.5625              0.4375           0.0117188
      115              0.9375              0.5625               0.375          0.00585938
      116              0.9375                 0.5              0.4375          0.00292969
      117               0.875                0.75               0.625          0.00585938
      118               0.875                0.75              0.5625           0.0117188
      119               0.875                0.75                 0.5           0.0117188
      120               0.875                0.75              0.4375           0.0117188
      121               0.875                0.75               0.375          0.00585938
      122               0.875              0.6875              0.5625          0.00585938
      123               0.875              0.6875                 0.5           0.0117188
      124               0.875              0.6875              0.4375           0.0117188
      125               0.875              0.6875               0.375           0.0117188
      126               0.875              0.6875              0.3125           0.0117188
      127              0.8125              0.6875              0.4375           0.0117188
      128              0.8125              0.6875                 0.5          0.00585938
      129               0.875               0.625                 0.5          0.00585938
      130               0.875               0.625              0.4375           0.0117188
      131               0.875               0.625               0.375           0.0117188
      132               0.875               0.625              0.3125           0.0117188
      133               0.875               0.625                0.25          0.00585938
      134               0.875              0.5625              0.4375          0.00585938
      135               0.875              0.5625               0.375           0.0117188
      136               0.875              0.5625              0.3125          0.00585938
      137               0.875                 0.5               0.375          0.00292969
      138              0.8125               0.625              0.4375          0.00585938
      139              0.8125               0.625               0.375           0.0117188
      140              0.8125               0.625              0.3125          0.00585938
      141              0.8125              0.5625               0.375          0.00585938
      142              0.8125              0.5625              0.3125           0.0117188
      143              0.8125              0.5625                0.25          0.00585938
      144              0.8125                 0.5              0.3125          0.00292969
      145                0.25                 0.5                0.75          0.00146484

           k-point number in this process = 145
       minimum distributed K point number = 145

  KPOINTS         CARTESIAN_X         CARTESIAN_Y         CARTESIAN_Z              WEIGHT
        1                   0                   0                   0         0.000488281
        2              0.9375              0.9375              0.9375          0.00390625
        3               0.875               0.875               0.875          0.00390625
        4              0.8125              0.8125              0.8125          0.00390625
        5                0.75                0.75                0.75          0.00390625
        6              0.6875              0.6875              0.6875          0.00390625
        7               0.625               0.625               0.625          0.00390625
        8              0.5625              0.5625              0.5625          0.00390625
        9                 0.5                 0.5                 0.5          0.00195312
       10                   0                   0               1.875          0.00292969
       11              0.8125              0.9375              0.9375           0.0117188
       12                0.75               0.875               0.875           0.0117188
       13              0.1875              0.1875              1.6875           0.0117188
       14                0.25                0.25               1.625           0.0117188
       15              0.3125              0.3125              1.5625           0.0117188
       16               0.375               0.375                 1.5           0.0117188
       17              0.4375              0.4375              1.4375           0.0117188
       18                 0.5                 0.5               1.375           0.0117188
       19              0.5625              0.5625              1.3125           0.0117188
       20               0.625               0.625                1.25           0.0117188
       21              0.6875              0.6875              1.1875           0.0117188
       22                0.75                0.75               1.125           0.0117188
       23              0.8125              0.8125              1.0625           0.0117188
       24               0.875               0.875                   1          0.00585938
       25                   0                   0                1.75          0.00292969
       26              0.6875              0.9375              0.9375           0.0117188
       27               0.625               0.875               0.875           0.0117188
       28              0.5625              0.8125              0.8125           0.0117188
       29                0.25                0.25                 1.5           0.0117188
       30              0.3125              0.3125              1.4375           0.0117188
       31               0.375               0.375               1.375           0.0117188
       32              0.4375              0.4375              1.3125           0.0117188
       33                 0.5                 0.5                1.25           0.0117188
       34              0.5625              0.5625              1.1875           0.0117188
       35               0.625               0.625               1.125           0.0117188
       36              0.6875              0.6875              1.0625           0.0117188
       37                0.75                0.75                   1          0.00585938
       38                   0                   0               1.625          0.00292969
       39              0.5625              0.9375              0.9375           0.0117188
       40                 0.5               0.875               0.875           0.0117188
       41              0.4375              0.8125              0.8125           0.0117188
       42                0.25                0.25               1.375           0.0117188
       43              0.3125              0.3125              1.3125           0.0117188
       44               0.375               0.375                1.25           0.0117188
       45              0.4375              0.4375              1.1875           0.0117188
       46                 0.5                 0.5               1.125           0.0117188
       47              0.5625              0.5625              1.0625           0.0117188
       48               0.625               0.625                   1          0.00585938
       49                   0                   0                 1.5          0.00292969
       50              0.4375              0.9375              0.9375           0.0117188
       51               0.375               0.875               0.875           0.0117188
       52              0.3125              0.8125              0.8125           0.0117188
       53                0.25                0.25                1.25           0.0117188
       54              0.3125              0.3125              1.1875           0.0117188
       55               0.375               0.375               1.125           0.0117188
       56              0.4375              0.4375              1.0625           0.0117188
       57                 0.5                 0.5                   1          0.00585938
       58                   0                   0               1.375          0.00292969
       59              0.3125              0.9375              0.9375           0.0117188
       60                0.25               0.875               0.875           0.0117188
       61              0.1875              0.8125              0.8125           0.0117188
       62                0.25                0.25               1.125           0.0117188
       63              0.3125              0.3125              1.0625           0.0117188
       64               0.375               0.375                   1          0.00585938
       65                   0                   0                1.25          0.00292969
       66              0.1875              0.9375              0.9375           0.0117188
       67               0.125               0.875               0.875           0.0117188
       68              0.0625              0.8125              0.8125           0.0117188
       69                0.25                0.25                   1          0.00585938
       70                   0                   0               1.125          0.00292969
       71              0.0625              0.9375              0.9375           0.0117188
       72                   0               0.875               0.875          0.00585938
       73                   1                   0                   0          0.00146484
       74                0.75               0.875                   1           0.0117188
       75              0.6875              0.8125              1.0625           0.0234375
       76               0.625                0.75               1.125           0.0234375
       77              0.5625              0.6875              1.1875           0.0234375
       78                 0.5               0.625                1.25           0.0234375
       79              0.4375              0.5625              1.3125           0.0234375
       80               0.375                 0.5               1.375           0.0117188
       81               0.625               0.875                   1           0.0117188
       82              0.5625              0.8125              1.0625           0.0234375
       83                 0.5                0.75               1.125           0.0234375
       84              0.4375              0.6875              1.1875           0.0234375
       85               0.375               0.625                1.25           0.0234375
       86              0.3125              0.5625              1.3125           0.0234375
       87                0.25                 0.5               1.375           0.0234375
       88              0.4375              0.5625              1.1875           0.0234375
       89                 0.5               0.625               1.125           0.0234375
       90              0.5625              0.6875              1.0625           0.0234375
       91               0.625                0.75                   1           0.0117188
       92                 0.5               0.875                   1           0.0117188
       93              0.4375              0.8125              1.0625           0.0234375
       94               0.375                0.75               1.125           0.0234375
       95              0.3125              0.6875              1.1875           0.0234375
       96                0.25               0.625                1.25           0.0234375
       97              0.1875              0.5625              1.3125           0.0234375
       98               0.125                 0.5               1.375           0.0234375
       99              0.0625              0.4375              1.4375           0.0234375
      100                 0.5               0.625                   1           0.0117188
      101               0.375               0.875                   1           0.0117188
      102              0.3125              0.8125              1.0625           0.0234375
      103                0.25                0.75               1.125           0.0234375
      104              0.1875              0.6875              1.1875           0.0234375
      105               0.125               0.625                1.25           0.0234375
      106              0.0625              0.5625              1.3125           0.0234375
      107                   0                 0.5               1.375           0.0117188
      108                0.25               0.875                   1           0.0117188
      109              0.1875              0.8125              1.0625           0.0234375
      110               0.125                0.75               1.125           0.0234375
      111              0.0625              0.6875              1.1875           0.0234375
      112                   0               0.625                1.25           0.0117188
      113               0.125               0.875                   1           0.0117188
      114              0.0625              0.8125              1.0625           0.0234375
      115                   0                0.75               1.125           0.0117188
      116                   0               0.875                   1          0.00585938
      117                 0.5                0.75                   1           0.0117188
      118              0.4375              0.6875              1.0625           0.0234375
      119               0.375               0.625               1.125           0.0234375
      120              0.3125              0.5625              1.1875           0.0234375
      121                0.25                 0.5                1.25           0.0117188
      122               0.375                0.75                   1           0.0117188
      123              0.3125              0.6875              1.0625           0.0234375
      124                0.25               0.625               1.125           0.0234375
      125              0.1875              0.5625              1.1875           0.0234375
      126               0.125                 0.5                1.25           0.0234375
      127              0.3125              0.5625              1.0625           0.0234375
      128               0.375               0.625                   1           0.0117188
      129                0.25                0.75                   1           0.0117188
      130              0.1875              0.6875              1.0625           0.0234375
      131               0.125               0.625               1.125           0.0234375
      132              0.0625              0.5625              1.1875           0.0234375
      133                   0                 0.5                1.25           0.0117188
      134               0.125                0.75                   1           0.0117188
      135              0.0625              0.6875              1.0625           0.0234375
      136                   0               0.625               1.125           0.0117188
      137                   0                0.75                   1          0.00585938
      138                0.25               0.625                   1           0.0117188
      139              0.1875              0.5625              1.0625           0.0234375
      140               0.125                 0.5               1.125           0.0117188
      141               0.125               0.625                   1           0.0117188
      142              0.0625              0.5625              1.0625           0.0234375
      143                   0                 0.5               1.125           0.0117188
      144                   0               0.625                   1          0.00585938
      145                   1                 0.5                   0          0.00292969

  KPOINTS            DIRECT_X            DIRECT_Y            DIRECT_Z              WEIGHT
        1                   0                   0                   0         0.000488281
        2              0.9375              0.9375              0.9375          0.00390625
        3               0.875               0.875               0.875          0.00390625
        4              0.8125              0.8125              0.8125          0.00390625
        5                0.75                0.75                0.75          0.00390625
        6              0.6875              0.6875              0.6875          0.00390625
        7               0.625               0.625               0.625          0.00390625
        8              0.5625              0.5625              0.5625          0.00390625
        9                 0.5                 0.5                 0.5          0.00195312
       10              0.9375              0.9375                   0          0.00292969
       11              0.9375               0.875               0.875           0.0117188
       12               0.875              0.8125              0.8125           0.0117188
       13              0.9375              0.9375              0.1875           0.0117188
       14              0.9375              0.9375                0.25           0.0117188
       15              0.9375              0.9375              0.3125           0.0117188
       16              0.9375              0.9375               0.375           0.0117188
       17              0.9375              0.9375              0.4375           0.0117188
       18              0.9375              0.9375                 0.5           0.0117188
       19              0.9375              0.9375              0.5625           0.0117188
       20              0.9375              0.9375               0.625           0.0117188
       21              0.9375              0.9375              0.6875           0.0117188
       22              0.9375              0.9375                0.75           0.0117188
       23              0.9375              0.9375              0.8125           0.0117188
       24              0.9375              0.9375               0.875          0.00585938
       25               0.875               0.875                   0          0.00292969
       26              0.9375              0.8125              0.8125           0.0117188
       27               0.875                0.75                0.75           0.0117188
       28              0.8125              0.6875              0.6875           0.0117188
       29               0.875               0.875                0.25           0.0117188
       30               0.875               0.875              0.3125           0.0117188
       31               0.875               0.875               0.375           0.0117188
       32               0.875               0.875              0.4375           0.0117188
       33               0.875               0.875                 0.5           0.0117188
       34               0.875               0.875              0.5625           0.0117188
       35               0.875               0.875               0.625           0.0117188
       36               0.875               0.875              0.6875           0.0117188
       37               0.875               0.875                0.75          0.00585938
       38              0.8125              0.8125                   0          0.00292969
       39              0.9375                0.75                0.75           0.0117188
       40               0.875              0.6875              0.6875           0.0117188
       41              0.8125               0.625               0.625           0.0117188
       42              0.8125              0.8125                0.25           0.0117188
       43              0.8125              0.8125              0.3125           0.0117188
       44              0.8125              0.8125               0.375           0.0117188
       45              0.8125              0.8125              0.4375           0.0117188
       46              0.8125              0.8125                 0.5           0.0117188
       47              0.8125              0.8125              0.5625           0.0117188
       48              0.8125              0.8125               0.625          0.00585938
       49                0.75                0.75                   0          0.00292969
       50              0.9375              0.6875              0.6875           0.0117188
       51               0.875               0.625               0.625           0.0117188
       52              0.8125              0.5625              0.5625           0.0117188
       53                0.75                0.75                0.25           0.0117188
       54                0.75                0.75              0.3125           0.0117188
       55                0.75                0.75               0.375           0.0117188
       56                0.75                0.75              0.4375           0.0117188
       57                0.75                0.75                 0.5          0.00585938
       58              0.6875              0.6875                   0          0.00292969
       59              0.9375               0.625               0.625           0.0117188
       60               0.875              0.5625              0.5625           0.0117188
       61              0.8125                 0.5                 0.5           0.0117188
       62              0.6875              0.6875                0.25           0.0117188
       63              0.6875              0.6875              0.3125           0.0117188
       64              0.6875              0.6875               0.375          0.00585938
       65               0.625               0.625                   0          0.00292969
       66              0.9375              0.5625              0.5625           0.0117188
       67               0.875                 0.5                 0.5           0.0117188
       68              0.8125              0.4375              0.4375           0.0117188
       69               0.625               0.625                0.25          0.00585938
       70              0.5625              0.5625                   0          0.00292969
       71              0.9375                 0.5                 0.5           0.0117188
       72               0.875              0.4375              0.4375          0.00585938
       73                   0                 0.5                 0.5          0.00146484
       74              0.9375               0.875              0.8125           0.0117188
       75              0.9375               0.875                0.75           0.0234375
       76              0.9375               0.875              0.6875           0.0234375
       77              0.9375               0.875               0.625           0.0234375
       78              0.9375               0.875              0.5625           0.0234375
       79              0.9375               0.875                 0.5           0.0234375
       80              0.9375               0.875              0.4375           0.0117188
       81              0.9375              0.8125                0.75           0.0117188
       82              0.9375              0.8125              0.6875           0.0234375
       83              0.9375              0.8125               0.625           0.0234375
       84              0.9375              0.8125              0.5625           0.0234375
       85              0.9375              0.8125                 0.5           0.0234375
       86              0.9375              0.8125              0.4375           0.0234375
       87              0.9375              0.8125               0.375           0.0234375
       88               0.875              0.8125                 0.5           0.0234375
       89               0.875              0.8125              0.5625           0.0234375
       90               0.875              0.8125               0.625           0.0234375
       91               0.875              0.8125              0.6875           0.0117188
       92              0.9375                0.75              0.6875           0.0117188
       93              0.9375                0.75               0.625           0.0234375
       94              0.9375                0.75              0.5625           0.0234375
       95              0.9375                0.75                 0.5           0.0234375
       96              0.9375                0.75              0.4375           0.0234375
       97              0.9375                0.75               0.375           0.0234375
       98              0.9375                0.75              0.3125           0.0234375
       99              0.9375                0.75                0.25           0.0234375
      100              0.8125                0.75              0.5625           0.0117188
      101              0.9375              0.6875               0.625           0.0117188
      102              0.9375              0.6875              0.5625           0.0234375
      103              0.9375              0.6875                 0.5           0.0234375
      104              0.9375              0.6875              0.4375           0.0234375
      105              0.9375              0.6875               0.375           0.0234375
      106              0.9375              0.6875              0.3125           0.0234375
      107              0.9375              0.6875                0.25           0.0117188
      108              0.9375               0.625              0.5625           0.0117188
      109              0.9375               0.625                 0.5           0.0234375
      110              0.9375               0.625              0.4375           0.0234375
      111              0.9375               0.625               0.375           0.0234375
      112              0.9375               0.625              0.3125           0.0117188
      113              0.9375              0.5625                 0.5           0.0117188
      114              0.9375              0.5625              0.4375           0.0234375
      115              0.9375              0.5625               0.375           0.0117188
      116              0.9375                 0.5              0.4375          0.00585938
      117               0.875                0.75               0.625           0.0117188
      118               0.875                0.75              0.5625           0.0234375
      119               0.875                0.75                 0.5           0.0234375
      120               0.875                0.75              0.4375           0.0234375
      121               0.875                0.75               0.375           0.0117188
      122               0.875              0.6875              0.5625           0.0117188
      123               0.875              0.6875                 0.5           0.0234375
      124               0.875              0.6875              0.4375           0.0234375
      125               0.875              0.6875               0.375           0.0234375
      126               0.875              0.6875              0.3125           0.0234375
      127              0.8125              0.6875              0.4375           0.0234375
      128              0.8125              0.6875                 0.5           0.0117188
      129               0.875               0.625                 0.5           0.0117188
      130               0.875               0.625              0.4375           0.0234375
      131               0.875               0.625               0.375           0.0234375
      132               0.875               0.625              0.3125           0.0234375
      133               0.875               0.625                0.25           0.0117188
      134               0.875              0.5625              0.4375           0.0117188
      135               0.875              0.5625               0.375           0.0234375
      136               0.875              0.5625              0.3125           0.0117188
      137               0.875                 0.5               0.375          0.00585938
      138              0.8125               0.625              0.4375           0.0117188
      139              0.8125               0.625               0.375           0.0234375
      140              0.8125               0.625              0.3125           0.0117188
      141              0.8125              0.5625               0.375           0.0117188
      142              0.8125              0.5625              0.3125           0.0234375
      143              0.8125              0.5625                0.25           0.0117188
      144              0.8125                 0.5              0.3125          0.00585938
      145                0.25                 0.5                0.75          0.00292969
 DONE : INIT K-POINTS Time : 0.140131 (SEC)





 >>>>>>>>>>>>>>>>>>>>>>>>>>>>>>>>>>>>>>>>>>>>>>>>>>>>>>>>>>>>>>>>>>>>>>
 |                                                                    |
 | Setup plane waves:                                                 |
 | Use the energy cutoff and the lattice vectors to generate the      |
 | dimensions of FFT grid. The number of FFT grid on each processor   |
 | is 'nrxx'. The number of plane wave basis in reciprocal space is   |
 | different for charege/potential and wave functions. We also set    |
 | the 'sticks' for the parallel of FFT.                              |
 |                                                                    |
 <<<<<<<<<<<<<<<<<<<<<<<<<<<<<<<<<<<<<<<<<<<<<<<<<<<<<<<<<<<<<<<<<<<<<<





 SETUP THE PLANE WAVE BASIS
     energy cutoff for wavefunc (unit:Ry) = 75
            [fft grid for wave functions] = 30, 30, 30
          [fft grid for charge/potential] = 30, 30, 30
                      [fft grid division] = 1, 1, 1
      [big fft grid for charge/potential] = 30, 30, 30
                                     nbxx = 27000
                                     nrxx = 27000

 SETUP PLANE WAVES FOR CHARGE/POTENTIAL
                    number of plane waves = 9577
                         number of sticks = 595

 SETUP PLANE WAVES FOR WAVE FUNCTIONS
                    number of plane waves = 1917
                         number of sticks = 199

 PARALLEL PW FOR CHARGE/POTENTIAL
     PROC   COLUMNS(POT)             PW
        1            595           9577
 --------------- sum -------------------
        1            595           9577

 PARALLEL PW FOR WAVE FUNCTIONS
     PROC     COLUMNS(W)             PW
        1            199           1917
 --------------- sum -------------------
        1            199           1917

 SETUP COORDINATES OF PLANE WAVES
              number of total plane waves = 9577

 SETUP COORDINATES OF PLANE WAVES
                            number of |g| = 149
                                  max |g| = 436
                                  min |g| = 0
 DONE : INIT PLANEWAVE Time : 0.204855 (SEC)

                                     npwx = 1243

 SETUP NONLOCAL PSEUDOPOTENTIALS IN PLANE WAVE BASIS
 Si non-local projectors:
      TOTAL NUMBER OF NONLOCAL PROJECTORS = 0

 nhm = 0, not allocate some matrix. DONE : LOCAL POTENTIAL Time : 0.355546 (SEC)


 Init Non-Local PseudoPotential table : 
 Init Non-Local-Pseudopotential done.
 DONE : NON-LOCAL POTENTIAL Time : 0.355596 (SEC)

                                start_pot = atomic
 DONE : INIT POTENTIAL Time : 0.413737 (SEC)


 Make real space PAO into reciprocal space.
       max mesh points in Pseudopotential = 1601
     dq(describe PAO in reciprocal space) = 0.01
                                    max q = 1045

 number of pseudo atomic orbitals for Si is 0
 DONE : INIT BASIS Time : 3.96575 (SEC)


 -------------------------------------------
 SELF-CONSISTENT
 -------------------------------------------

 PW ALGORITHM --------------- ION=   1  ELEC=   1--------------------------------
  K-point    CG iter num      Time(Sec)
        1       8.166667       0.177126
        2       6.666667       0.148476
        3       7.833333       0.163942
        4       7.083333       0.147417
        5       6.833333       0.148607
        6       7.666667       0.163420
        7       7.333333       0.162781
        8       6.583333       0.161669
        9       7.250000       0.155831
       10       7.666667       0.130882
       11       7.250000       0.124876
       12       7.666667       0.127508
       13       7.583333       0.127047
       14       7.583333       0.133941
       15       6.583333       0.136621
       16       7.000000       0.179255
       17       7.666667       0.190490
       18       7.250000       0.175324
       19       7.166667       0.163051
       20       7.000000       0.159850
       21       7.333333       0.168850
       22       7.500000       0.170701
       23       7.500000       0.158578
       24       6.750000       0.154654
       25       7.166667       0.163246
       26       7.916667       0.147630
       27       8.083333       0.135346
       28       8.666667       0.171309
       29       7.083333       0.167622
       30       6.666667       0.154141
       31       7.250000       0.173712
       32       7.416667       0.176862
       33       7.083333       0.174296
       34       6.750000       0.161656
       35       7.250000       0.169537
       36       7.666667       0.176459
       37       6.666667       0.160844
       38       7.000000       0.166282
       39       8.000000       0.178133
       40       7.250000       0.171563
       41       7.916667       0.178602
       42       7.750000       0.179396
       43       7.333333       0.167340
       44       6.750000       0.156627
       45       6.916667       0.156220
       46       7.583333       0.179623
       47       8.000000       0.196836
       48       7.166667       0.172633
       49       6.500000       0.149943
       50       6.833333       0.152607
       51       7.500000       0.167383
       52       7.583333       0.172219
       53       7.500000       0.167211
       54       7.583333       0.168978
       55       7.500000       0.165047
       56       6.750000       0.151867
       57       7.166667       0.155345
       58       6.583333       0.149155
       59       7.083333       0.158534
       60       7.750000       0.173388
       61       7.166667       0.158964
       62       8.500000       0.189467
       63       7.666667       0.189019
       64       6.166667       0.154114
       65       6.833333       0.170450
       66       7.000000       0.180071
       67       7.583333       0.189981
       68       7.916667       0.205543
       69       7.166667       0.185665
       70       7.333333       0.187545
       71       7.166667       0.187830
       72       7.500000       0.187088
       73       6.000000       0.156852
       74       7.416667       0.189760
       75       7.416667       0.187933
       76       7.500000       0.195085
       77       7.833333       0.202434
       78       7.666667       0.198704
       79       7.666667       0.204924
       80       7.166667       0.193242
       81       7.500000       0.202998
       82       8.583333       0.229673
       83       8.000000       0.213880
       84       7.583333       0.200529
       85       7.250000       0.193150
       86       7.583333       0.201648
       87       8.083333       0.206571
       88       7.083333       0.183099
       89       7.916667       0.210026
       90       7.666667       0.197840
       91       6.666667       0.178762
       92       7.083333       0.195515
       93       7.583333       0.207976
       94       7.000000       0.195843
       95       7.666667       0.212123
       96       7.500000       0.208983
       97       7.416667       0.208299
       98       7.083333       0.200740
       99       6.750000       0.191813
      100       7.666667       0.213613
      101       7.333333       0.206045
      102       8.833333       0.241846
      103       7.750000       0.213073
      104       7.250000       0.203689
      105       6.833333       0.187868
      106       7.583333       0.204362
      107       6.166667       0.154253
      108       7.416667       0.183624
      109       8.333333       0.217497
      110       7.666667       0.210631
      111       7.166667       0.200263
      112       6.583333       0.183703
      113       6.666667       0.187485
      114       8.666667       0.236112
      115       8.333333       0.229018
      116       6.000000       0.170712
      117       6.750000       0.190834
      118       8.166667       0.223837
      119       6.916667       0.197365
      120       7.833333       0.216850
      121       7.416667       0.206017
      122       7.333333       0.204560
      123       7.750000       0.213909
      124       7.083333       0.198048
      125       7.583333       0.212486
      126       8.000000       0.218521
      127       7.333333       0.203628
      128       6.500000       0.186058
      129       6.583333       0.186214
      130       7.416667       0.203713
      131       7.833333       0.215444
      132       7.666667       0.211179
      133       6.750000       0.186773
      134       6.916667       0.193872
      135       7.833333       0.214674
      136       8.083333       0.222351
      137       6.750000       0.190083
      138       7.500000       0.207689
      139       7.750000       0.210629
      140       7.666667       0.211501
      141       6.750000       0.188310
      142       8.000000       0.222348
      143       8.083333       0.218390
      144       6.750000       0.183805
      145       7.083333       0.195307

 Density error is 0.092425053744
                          Error Threshold = 0.010000000000

       Energy                       Rydberg                            eV
   E_KohnSham               -8.012687883199             -109.018211507061
     E_Harris               -8.009050642869             -108.968724313577
      E_Fermi               +0.672171428300               +9.145361457679

 PW ALGORITHM --------------- ION=   1  ELEC=   2--------------------------------
  K-point    CG iter num      Time(Sec)
        1       2.250000       0.077642
        2       2.166667       0.075155
        3       2.000000       0.072168
        4       2.083333       0.070476
        5       2.083333       0.074393
        6       2.000000       0.071210
        7       2.000000       0.070995
        8       2.083333       0.071468
        9       2.000000       0.072128
       10       2.583333       0.084505
       11       2.166667       0.072943
       12       2.166667       0.072361
       13       2.000000       0.071181
       14       2.250000       0.077114
       15       2.250000       0.076773
       16       2.250000       0.075125
       17       2.416667       0.080625
       18       2.500000       0.083653
       19       2.166667       0.071919
       20       2.500000       0.084316
       21       2.416667       0.081866
       22       2.250000       0.078649
       23       2.083333       0.071277
       24       2.416667       0.079837
       25       2.416667       0.079843
       26       2.000000       0.067773
       27       2.333333       0.077866
       28       2.750000       0.089768
       29       2.083333       0.071628
       30       2.083333       0.070668
       31       2.000000       0.069317
       32       2.166667       0.075514
       33       2.000000       0.071441
       34       2.083333       0.068709
       35       2.000000       0.070870
       36       2.416667       0.080250
       37       2.416667       0.078064
       38       2.833333       0.089014
       39       2.000000       0.070334
       40       2.250000       0.076526
       41       2.000000       0.067643
       42       2.166667       0.073530
       43       2.500000       0.081725
       44       2.166667       0.075147
       45       2.583333       0.084610
       46       2.000000       0.071831
       47       2.250000       0.077575
       48       2.000000       0.066761
       49       2.000000       0.071217
       50       2.500000       0.083023
       51       2.250000       0.073980
       52       2.416667       0.079751
       53       2.250000       0.075767
       54       2.000000       0.067257
       55       2.000000       0.070399
       56       2.083333       0.071402
       57       2.083333       0.074691
       58       2.000000       0.069129
       59       2.333333       0.079712
       60       2.666667       0.086466
       61       2.083333       0.072514
       62       2.250000       0.077248
       63       2.000000       0.069756
       64       2.000000       0.068088
       65       2.500000       0.081347
       66       2.583333       0.086212
       67       2.000000       0.069999
       68       2.333333       0.077679
       69       2.000000       0.069405
       70       2.250000       0.078034
       71       2.500000       0.080814
       72       2.666667       0.088298
       73       2.083333       0.071507
       74       2.333333       0.076893
       75       2.416667       0.079481
       76       2.083333       0.071496
       77       2.166667       0.074991
       78       2.083333       0.073295
       79       2.000000       0.068992
       80       2.000000       0.072395
       81       2.000000       0.070508
       82       2.083333       0.072542
       83       2.083333       0.072784
       84       2.333333       0.080228
       85       2.500000       0.084131
       86       2.000000       0.071115
       87       2.083333       0.071566
       88       2.083333       0.074634
       89       2.166667       0.074265
       90       2.166667       0.074457
       91       2.000000       0.069564
       92       2.416667       0.081916
       93       2.166667       0.075805
       94       2.000000       0.068179
       95       2.083333       0.072801
       96       2.083333       0.071478
       97       2.000000       0.071236
       98       2.083333       0.073171
       99       2.083333       0.073362
      100       2.000000       0.069959
      101       2.333333       0.078633
      102       2.250000       0.077972
      103       2.083333       0.072974
      104       2.000000       0.070149
      105       2.000000       0.070474
      106       2.000000       0.070062
      107       2.000000       0.069398
      108       2.333333       0.077811
      109       2.166667       0.076643
      110       2.000000       0.067876
      111       2.083333       0.071832
      112       2.000000       0.069203
      113       3.000000       0.096742
      114       2.166667       0.072037
      115       2.333333       0.079894
      116       2.083333       0.071651
      117       2.083333       0.073946
      118       2.166667       0.072599
      119       2.250000       0.076937
      120       2.083333       0.073157
      121       2.000000       0.069774
      122       2.250000       0.075496
      123       2.000000       0.071464
      124       2.000000       0.070078
      125       2.083333       0.074521
      126       2.083333       0.072717
      127       2.083333       0.069736
      128       2.083333       0.075096
      129       2.000000       0.071299
      130       2.000000       0.070694
      131       2.250000       0.075944
      132       2.166667       0.074966
      133       2.083333       0.074336
      134       2.666667       0.086564
      135       2.166667       0.075601
      136       2.166667       0.074441
      137       2.000000       0.070172
      138       2.000000       0.070030
      139       2.416667       0.083239
      140       2.000000       0.071987
      141       2.166667       0.074907
      142       2.416667       0.083564
      143       2.000000       0.072815
      144       2.083333       0.069967
      145       3.000000       0.098446

 Density error is 0.008083403129
                          Error Threshold = 0.002310626344

       Energy                       Rydberg                            eV
   E_KohnSham               -8.026108685067             -109.200810884194
     E_Harris               -8.018602552060             -109.098684705363
      E_Fermi               +0.665682383614               +9.057073475373

 PW ALGORITHM --------------- ION=   1  ELEC=   3--------------------------------
  K-point    CG iter num      Time(Sec)
        1       2.750000       0.090572
        2       3.166667       0.101390
        3       2.666667       0.087863
        4       2.750000       0.089435
        5       2.583333       0.086393
        6       2.333333       0.079255
        7       2.500000       0.084910
        8       2.583333       0.087590
        9       2.500000       0.083723
       10       2.833333       0.093934
       11       2.833333       0.094907
       12       2.666667       0.089941
       13       2.666667       0.090588
       14       2.500000       0.083900
       15       2.916667       0.095818
       16       2.916667       0.098579
       17       2.500000       0.083424
       18       2.500000       0.085949
       19       2.500000       0.084307
       20       2.500000       0.083458
       21       2.500000       0.084445
       22       2.916667       0.094656
       23       3.166667       0.098619
       24       3.083333       0.100421
       25       2.666667       0.086495
       26       3.083333       0.099337
       27       2.833333       0.094365
       28       2.750000       0.090676
       29       3.250000       0.104057
       30       2.916667       0.096727
       31       3.166667       0.099979
       32       3.000000       0.096682
       33       2.583333       0.086784
       34       2.666667       0.088024
[...]
 113/145 kpoint (Cartesian) = 0.125000 0.875000 1.000000 (1190 pws)
       1       1.932321       0.011719
       2       6.375124       0.011719
       3      11.172595       0.000000
       4      11.433808       0.000000
       5      16.454295       0.000000
       6      16.800154       0.000000
       7      34.332646       0.000000
       8      38.087375       0.000000
       9      38.316003       0.000000
      10      40.763893       0.000000
      11      43.100821       0.000000
      12      43.165165       0.000000

 114/145 kpoint (Cartesian) = 0.062500 0.812500 1.062500 (1192 pws)
       1       3.104874       0.023438
       2       5.380793       0.023438
       3       9.370841       0.000000
       4      11.411404       0.000000
       5      16.718735       0.000000
       6      18.805885       0.000000
       7      33.412907       0.000000
       8      35.506874       0.000000
       9      38.283393       0.000000
      10      40.694069       0.000000
      11      42.641262       0.000000
      12      44.715161       0.000000

 115/145 kpoint (Cartesian) = 0.000000 0.750000 1.125000 (1185 pws)
       1       4.045822       0.011719
       2       4.915209       0.011719
       3       7.652295       0.011719
       4      11.716365       0.000000
       5      17.035742       0.000000
       6      21.299790       0.000000
       7      32.543689       0.000000
       8      32.664593       0.000000
       9      37.051133       0.000000
      10      38.382176       0.000000
      11      44.799110       0.000000
      12      44.913593       0.000000

 116/145 kpoint (Cartesian) = 0.000000 0.875000 1.000000 (1192 pws)
       1       3.736171       0.005859
       2       4.341313       0.005859
       3      11.030660       0.000000
       4      11.264424       0.000000
       5      16.311711       0.000000
       6      16.642481       0.000000
       7      36.189646       0.000000
       8      36.599360       0.000000
       9      40.256849       0.000000
      10      41.234650       0.000000
      11      41.926121       0.000000
      12      42.121723       0.000000

 117/145 kpoint (Cartesian) = 0.500000 0.750000 1.000000 (1196 pws)
       1      -2.291274       0.011719
       2      11.242992       0.000000
       3      11.575288       0.000000
       4      15.875835       0.000000
       5      21.142670       0.000000
       6      21.373326       0.000000
       7      25.881098       0.000000
       8      29.765151       0.000000
       9      31.083155       0.000000
      10      35.588599       0.000000
      11      35.755976       0.000000
      12      40.031419       0.000000

 118/145 kpoint (Cartesian) = 0.437500 0.687500 1.062500 (1198 pws)
       1      -1.341151       0.023438
       2       9.036838       0.015891
       3      11.198944       0.000000
       4      14.793978       0.000000
       5      20.999025       0.000000
       6      22.908053       0.000000
       7      24.986654       0.000000
       8      30.089155       0.000000
       9      32.474342       0.000000
      10      34.689417       0.000000
      11      38.608533       0.000000
      12      41.184828       0.000000

 119/145 kpoint (Cartesian) = 0.375000 0.625000 1.125000 (1191 pws)
       1      -0.196851       0.023438
       2       6.873367       0.023438
       3      11.146026       0.000000
       4      13.854911       0.000000
       5      20.916143       0.000000
       6      23.359228       0.000000
       7      25.744450       0.000000
       8      30.109361       0.000000
       9      33.274679       0.000000
      10      34.813870       0.000000
      11      38.093402       0.000000
      12      42.246732       0.000000

 120/145 kpoint (Cartesian) = 0.312500 0.562500 1.187500 (1189 pws)
       1       1.089866       0.023438
       2       4.968105       0.023438
       3      11.221142       0.000000
       4      13.174079       0.000000
       5      20.964495       0.000000
       6      22.850012       0.000000
       7      27.811258       0.000000
       8      30.164218       0.000000
       9      32.821278       0.000000
      10      34.159160       0.000000
      11      38.204458       0.000000
      12      43.309552       0.000000

 121/145 kpoint (Cartesian) = 0.250000 0.500000 1.250000 (1198 pws)
       1       2.010273       0.011719
       2       3.840658       0.011719
       3      11.286840       0.000000
       4      12.905060       0.000000
       5      21.016858       0.000000
       6      22.614067       0.000000
       7      29.178668       0.000000
       8      30.227850       0.000000
       9      32.619224       0.000000
      10      32.715449       0.000000
      11      40.426318       0.000000
      12      40.796590       0.000000

 122/145 kpoint (Cartesian) = 0.375000 0.750000 1.000000 (1204 pws)
       1      -1.019690       0.011719
       2      10.063631       0.000000
       3      10.584026       0.000000
       4      13.147057       0.000000
       5      20.166083       0.000000
       6      20.329529       0.000000
       7      27.111482       0.000000
       8      32.890075       0.000000
       9      34.234267       0.000000
      10      37.018539       0.000000
      11      37.466383       0.000000
      12      41.496148       0.000000

 123/145 kpoint (Cartesian) = 0.312500 0.687500 1.062500 (1199 pws)
       1       0.059833       0.023438
       2       8.122677       0.023438
       3      10.159026       0.000000
       4      12.166041       0.000000
       5      20.175510       0.000000
       6      22.279078       0.000000
       7      26.131147       0.000000
       8      33.146758       0.000000
       9      35.422155       0.000000
      10      36.333116       0.000000
      11      38.678876       0.000000
      12      40.685910       0.000000

 124/145 kpoint (Cartesian) = 0.250000 0.625000 1.125000 (1203 pws)
       1       1.307794       0.023438
       2       6.166480       0.023438
       3       9.938474       0.000000
       4      11.594795       0.000000
       5      20.303540       0.000000
       6      24.143979       0.000000
       7      25.742685       0.000000
       8      32.514422       0.000000
       9      34.713031       0.000000
      10      35.720082       0.000000
      11      39.355635       0.000000
      12      43.527892       0.000000

 125/145 kpoint (Cartesian) = 0.187500 0.562500 1.187500 (1191 pws)
       1       2.502706       0.023438
       2       4.646396       0.023438
       3       9.589831       0.000000
       4      11.580848       0.000000
       5      20.622493       0.000000
       6      24.200226       0.000000
       7      27.520283       0.000000
       8      30.643827       0.000000
       9      33.644682       0.000000
      10      35.663173       0.000000
      11      40.730073       0.000000
      12      41.795200       0.000000

 126/145 kpoint (Cartesian) = 0.125000 0.500000 1.250000 (1190 pws)
       1       2.146952       0.023438
       2       5.078182       0.023438
       3       9.225550       0.000335
       4      12.006362       0.000000
       5      21.106619       0.000000
       6      23.845665       0.000000
       7      27.986092       0.000000
       8      30.185554       0.000000
       9      33.274621       0.000000
      10      35.827108       0.000000
      11      38.335501       0.000000
      12      44.515004       0.000000

 127/145 kpoint (Cartesian) = 0.312500 0.562500 1.062500 (1192 pws)
       1       0.867603       0.023438
       2       6.835610       0.023438
       3       8.987288       0.020545
       4      12.726807       0.000000
       5      21.687024       0.000000
       6      23.662838       0.000000
       7      25.688964       0.000000
       8      31.908449       0.000000
       9      33.461922       0.000000
      10      35.489956       0.000000
      11      37.507957       0.000000
      12      41.374034       0.000000

 128/145 kpoint (Cartesian) = 0.375000 0.625000 1.000000 (1193 pws)
       1      -0.328431       0.011719
       2       8.784937       0.011718
       3       9.049275       0.007185
       4      13.675986       0.000000
       5      22.122557       0.000000
       6      23.119705       0.000000
       7      24.411003       0.000000
       8      31.835154       0.000000
       9      32.670591       0.000000
      10      36.713093       0.000000
      11      37.772579       0.000000
      12      38.992267       0.000000

 129/145 kpoint (Cartesian) = 0.250000 0.750000 1.000000 (1191 pws)
       1       0.523365       0.011719
       2       8.658884       0.011719
       3       9.873098       0.000000
       4      11.028309       0.000000
       5      19.463426       0.000000
       6      19.608789       0.000000
       7      28.658927       0.000000
       8      35.830045       0.000000
       9      36.282496       0.000000
      10      38.978350       0.000000
      11      39.820662       0.000000
      12      40.036912       0.000000

 130/145 kpoint (Cartesian) = 0.187500 0.687500 1.062500 (1195 pws)
       1       1.716110       0.023438
       2       7.266504       0.023438
       3       8.830683       0.023428
       4      10.518913       0.000000
       5      19.620967       0.000000
       6      21.783352       0.000000
       7      27.737762       0.000000
       8      34.002624       0.000000
       9      36.413858       0.000000
      10      39.047828       0.000000
      11      40.511953       0.000000
      12      42.683566       0.000000

 131/145 kpoint (Cartesian) = 0.125000 0.625000 1.125000 (1193 pws)
       1       2.980451       0.023438
       2       5.746572       0.023438
       3       8.004983       0.023438
       4      10.640820       0.000000
       5      19.909581       0.000000
       6      24.183672       0.000000
       7      27.066171       0.000000
       8      31.250009       0.000000
       9      35.947148       0.000000
      10      38.966542       0.000000
      11      41.203081       0.000000
      12      42.938265       0.000000

 132/145 kpoint (Cartesian) = 0.062500 0.562500 1.187500 (1187 pws)
       1       3.268509       0.023438
       2       5.471536       0.023438
       3       7.401811       0.023438
       4      11.092268       0.000000
       5      20.392776       0.000000
       6      25.841318       0.000000
       7      27.268316       0.000000
       8      28.795782       0.000000
       9      35.376547       0.000000
      10      37.846809       0.000000
      11      40.077284       0.000000
      12      44.196519       0.000000

 133/145 kpoint (Cartesian) = 0.000000 0.500000 1.250000 (1189 pws)
       1       2.092592       0.011719
       2       6.970846       0.011719
       3       7.060044       0.011719
       4      11.796557       0.000000
       5      21.043007       0.000000
       6      25.693640       0.000000
       7      25.860169       0.000000
       8      30.256200       0.000000
       9      34.437099       0.000000
      10      36.114217       0.000000
      11      40.425672       0.000000
      12      40.654419       0.000000

 134/145 kpoint (Cartesian) = 0.125000 0.750000 1.000000 (1195 pws)
       1       2.318954       0.011719
       2       6.633889       0.011719
       3       9.445623       0.000000
       4      10.045432       0.000000
       5      19.040215       0.000000
       6      19.180739       0.000000
       7      30.489114       0.000000
       8      34.788682       0.000000
       9      38.446825       0.000000
      10      40.751153       0.000000
      11      42.464307       0.000000
      12      43.046578       0.000000

 135/145 kpoint (Cartesian) = 0.062500 0.687500 1.062500 (1190 pws)
       1       3.553487       0.023438
       2       5.772696       0.023438
       3       7.909043       0.023438
       4       9.998340       0.000000
       5      19.342365       0.000000
       6      21.524646       0.000000
       7      29.660909       0.000000
       8      31.845050       0.000000
       9      38.555519       0.000000
      10      41.073975       0.000000
      11      42.787064       0.000000
      12      43.600857       0.000000

 136/145 kpoint (Cartesian) = 0.000000 0.625000 1.125000 (1197 pws)
       1       4.131221       0.011719
       2       5.631288       0.011719
       3       6.641389       0.011719
       4      10.420131       0.000000
       5      19.775826       0.000000
       6      24.115622       0.000000
       7      28.840780       0.000000
       8      29.229820       0.000000
       9      37.556973       0.000000
      10      38.881597       0.000000
      11      43.558214       0.000000
      12      43.579716       0.000000

 137/145 kpoint (Cartesian) = 0.000000 0.750000 1.000000 (1192 pws)
       1       4.026712       0.005859
       2       4.771715       0.005859
       3       9.302996       0.000003
       4       9.792675       0.000000
       5      18.898908       0.000000
       6      19.038485       0.000000
       7      32.536749       0.000000
       8      32.601470       0.000000
       9      40.462079       0.000000
      10      41.616314       0.000000
      11      42.260949       0.000000
      12      42.916891       0.000000

 138/145 kpoint (Cartesian) = 0.250000 0.625000 1.000000 (1198 pws)
       1       1.192452       0.011719
       2       7.900182       0.011719
       3       8.336254       0.011719
       4      11.064038       0.000000
       5      22.069329       0.000000
       6      22.426422       0.000000
       7      25.286155       0.000000
       8      33.406293       0.000000
       9      35.253705       0.000000
      10      37.439955       0.000000
      11      39.772690       0.000000
      12      39.834016       0.000000

 139/145 kpoint (Cartesian) = 0.187500 0.562500 1.062500 (1198 pws)
       1       2.460006       0.023438
       2       6.273223       0.023438
       3       8.224599       0.023438
       4      10.303100       0.000000
       5      22.254554       0.000000
       6      23.880960       0.000000
       7      25.438183       0.000000
       8      30.697894       0.000000
       9      36.035152       0.000000
      10      38.414763       0.000000
      11      39.801249       0.000000
      12      43.182496       0.000000

 140/145 kpoint (Cartesian) = 0.125000 0.500000 1.125000 (1192 pws)
       1       3.355178       0.011719
       2       5.195118       0.011719
       3       8.289259       0.011719
       4      10.008022       0.000000
       5      22.310911       0.000000
       6      23.931179       0.000000
       7      27.120132       0.000000
       8      28.551751       0.000000
       9      36.180721       0.000000
      10      38.500983       0.000000
      11      41.790499       0.000000
      12      42.127493       0.000000

 141/145 kpoint (Cartesian) = 0.125000 0.625000 1.000000 (1190 pws)
       1       2.931404       0.011719
       2       6.804501       0.011719
       3       7.907616       0.011719
       4       9.206969       0.000316
       5      21.839439       0.000000
       6      22.008032       0.000000
       7      26.897412       0.000000
       8      31.202755       0.000000
       9      38.445150       0.000000
      10      40.889646       0.000000
      11      41.542238       0.000000
      12      42.578951       0.000000

 142/145 kpoint (Cartesian) = 0.062500 0.562500 1.062500 (1195 pws)
       1       4.038569       0.023438
       2       6.006830       0.023438
       3       7.141663       0.023438
       4       8.979531       0.021034
       5      22.216869       0.000000
       6      24.299483       0.000000
       7      26.331577       0.000000
       8      28.451597       0.000000
       9      38.896228       0.000000
      10      41.436667       0.000000
      11      42.597939       0.000000
      12      42.969672       0.000000

 143/145 kpoint (Cartesian) = 0.000000 0.500000 1.125000 (1195 pws)
       1       3.660620       0.011719
       2       6.575450       0.011719
       3       6.630669       0.011719
       4       9.437334       0.000000
       5      22.610474       0.000000
       6      25.282428       0.000000
       7      25.437516       0.000000
       8      28.090930       0.000000
       9      38.104729       0.000000
      10      39.781775       0.000000
      11      42.382312       0.000000
      12      42.728192       0.000000

 144/145 kpoint (Cartesian) = 0.000000 0.625000 1.000000 (1194 pws)
       1       4.401441       0.005859
       2       5.487894       0.005859
       3       7.764615       0.005859
       4       8.645585       0.005859
       5      21.742992       0.000000
       6      21.868218       0.000000
       7      28.706665       0.000000
       8      29.132903       0.000000
       9      40.700296       0.000000
      10      42.192191       0.000000
      11      42.680773       0.000000
      12      43.598660       0.000000

 145/145 kpoint (Cartesian) = 1.000000 0.500000 0.000000 (1216 pws)
       1       4.600529       0.002930
       2       6.487432       0.002930
       3       6.487432       0.002930
       4       8.183377       0.002930
       5      23.689625       0.000000
       6      25.144792       0.000000
       7      25.144792       0.000000
       8      26.925933       0.000000
       9      40.812144       0.000000
      10      42.725332       0.000000
      11      42.725332       0.000000
      12      44.034713       0.000000



 --------------------------------------------
 !FINAL_ETOT_IS -109.2038145420190034 eV
 --------------------------------------------






  |CLASS_NAME---------|NAME---------------|TIME(Sec)-----|CALLS----|AVG------|PER%-------
                                      total         96.900        17      5.70    100.00%
                 Run_pw     plane_wave_line          96.89         1     96.89     99.99%
                Cell_PW        opt_cells_pw          96.67         1     96.67     99.77%
                    FFT               FFT3D          62.48     98390      0.00     64.48%
               wavefunc             wfcinit           3.55         1      3.55      3.67%
              Hamilt_PW      diagH_subspace          15.36       725      0.02     15.86%
              Hamilt_PW               h_psi          75.35     36858      0.00     77.76%
              Hamilt_PW                vloc          74.42     36858      0.00     76.80%
                 Hamilt        diagH_LAPACK           0.31       725      0.00      0.32%
                   Ions         opt_ions_pw          92.91         1     92.91     95.89%
              Electrons     self_consistent          92.91         1     92.91     95.88%
              Electrons             c_bands          45.87         3     15.29     47.34%
                 Hamilt            diagH_pw          84.05       725      0.12     86.73%
               Diago_CG                diag          71.26       725      0.10     73.54%
              electrons             c_bands          34.97         3     11.66     36.09%
                 Charge            sum_band           7.89         5      1.58      8.14%
 ----------------------------------------------------------------------------------------

 CLASS_NAME---------|NAME---------------|MEMORY(MB)--------
                                         41.4263
             wavefunc                 evc        33.0020
         Charge_Pulay                Rrho         1.6479
         Charge_Pulay               dRrho         1.4420
         Charge_Pulay                drho         1.4420
 ----------------------------------------------------------

 Start  Time  : Fri Sep 10 11:31:50 2021
 Finish Time  : Fri Sep 10 11:33:27 2021
 Total  Time  : 0 h 1 mins 37 secs 
