                                                                                     
                             WELCOME TO ABACUS v3.0                                  
                                                                                     
               'Atomic-orbital Based Ab-initio Computation at UStc'                  
                                                                                     
                     Website: http://abacus.ustc.edu.cn/                             
                                                                                     
    Version: Parallel, in development
    Processor Number is 1
    Start Time is Mon May 15 13:23:29 2023
                                                                                     
 ------------------------------------------------------------------------------------

 READING GENERAL INFORMATION
                           global_out_dir = OUT.oftest/
                           global_in_card = INPUT
                               pseudo_dir = 
                              orbital_dir = 
                                    DRANK = 1
                                    DSIZE = 1
                                   DCOLOR = 1
                                    GRANK = 1
                                    GSIZE = 1
 The esolver type has been set to : ofdft




 >>>>>>>>>>>>>>>>>>>>>>>>>>>>>>>>>>>>>>>>>>>>>>>>>>>>>>>>>>>>>>>>>>>>>>
 |                                                                    |
 | Reading atom information in unitcell:                              |
 | From the input file and the structure file we know the number of   |
 | different elments in this unitcell, then we list the detail        |
 | information for each element, especially the zeta and polar atomic |
 | orbital number for each element. The total atom number is counted. |
 | We calculate the nearest atom distance for each atom and show the  |
 | Cartesian and Direct coordinates for each atom. We list the file   |
 | address for atomic orbitals. The volume and the lattice vectors    |
 | in real and reciprocal space is also shown.                        |
 |                                                                    |
 <<<<<<<<<<<<<<<<<<<<<<<<<<<<<<<<<<<<<<<<<<<<<<<<<<<<<<<<<<<<<<<<<<<<<<




 READING UNITCELL INFORMATION
                                    ntype = 3
                 atom label for species 1 = Li
                 atom label for species 2 = Mg
                 atom label for species 3 = Al
                  lattice constant (Bohr) = 1.88973
              lattice constant (Angstrom) = 1

 READING ATOM TYPE 1
                               atom label = Li
                      L=0, number of zeta = 1
                      L=1, number of zeta = 1
                      L=2, number of zeta = 1
             number of atom for this type = 1
                      start magnetization = FALSE

 READING ATOM TYPE 2
                               atom label = Mg
                      L=0, number of zeta = 1
                      L=1, number of zeta = 1
                      L=2, number of zeta = 1
             number of atom for this type = 14
                      start magnetization = FALSE
                      start magnetization = FALSE
                      start magnetization = FALSE
                      start magnetization = FALSE
                      start magnetization = FALSE
                      start magnetization = FALSE
                      start magnetization = FALSE
                      start magnetization = FALSE
                      start magnetization = FALSE
                      start magnetization = FALSE
                      start magnetization = FALSE
                      start magnetization = FALSE
                      start magnetization = FALSE
                      start magnetization = FALSE

 READING ATOM TYPE 3
                               atom label = Al
                      L=0, number of zeta = 1
                      L=1, number of zeta = 1
                      L=2, number of zeta = 1
             number of atom for this type = 1
                      start magnetization = FALSE

                        TOTAL ATOM NUMBER = 16

 DIRECT COORDINATES
         atom                   x                   y                   z                 mag                  vx                  vy                  vz
     taud_Li1                   0                   0                 0.5                   0                   0                   0                   0
     taud_Mg1            0.999309            0.499654                   0                   0                   0                   0                   0
     taud_Mg2          0.00088567            0.500443                 0.5                   0                   0                   0                   0
     taud_Mg3            0.500346          0.00069143                   0                   0                   0                   0                   0
     taud_Mg4            0.499557            0.999114                 0.5                   0                   0                   0                   0
     taud_Mg5            0.500346            0.499654                   0                   0                   0                   0                   0
     taud_Mg6            0.499557            0.500443                 0.5                   0                   0                   0                   0
     taud_Mg7            0.165386            0.834614            0.249174                   0                   0                   0                   0
     taud_Mg8            0.165386            0.834614            0.750826                   0                   0                   0                   0
     taud_Mg9            0.165386            0.330773            0.249174                   0                   0                   0                   0
    taud_Mg10            0.165386            0.330773            0.750826                   0                   0                   0                   0
    taud_Mg11            0.669227            0.834614            0.249174                   0                   0                   0                   0
    taud_Mg12            0.669227            0.834614            0.750826                   0                   0                   0                   0
    taud_Mg13            0.666667            0.333333            0.250611                   0                   0                   0                   0
    taud_Mg14            0.666667            0.333333            0.749389                   0                   0                   0                   0
     taud_Al1                   0                   0                   0                   0                   0                   0                   0


                          Volume (Bohr^3) = 2403.51
                             Volume (A^3) = 356.164

 Lattice vectors: (Cartesian coordinate: in unit of a_0)
             +3.14938            -5.45488                  +0
             +3.14938            +5.45488                  +0
                   +0                  +0             +10.366
 Reciprocal vectors: (Cartesian coordinate: in unit of 2 pi/a_0)
            +0.158761           -0.091661                  +0
            +0.158761           +0.091661                  -0
                   -0                  -0          +0.0964696




 >>>>>>>>>>>>>>>>>>>>>>>>>>>>>>>>>>>>>>>>>>>>>>>>>>>>>>>>>>>>>>>>>>>>>>
 |                                                                    |
 | Reading pseudopotentials files:                                    |
 | The pseudopotential file is in UPF format. The 'NC' indicates that |
 | the type of pseudopotential is 'norm conserving'. Functional of    |
 | exchange and correlation is decided by 4 given parameters in UPF   |
 | file.  We also read in the 'core correction' if there exists.      |
 | Also we can read the valence electrons number and the maximal      |
 | angular momentum used in this pseudopotential. We also read in the |
 | trail wave function, trail atomic density and local-pseudopotential|
 | on logrithmic grid. The non-local pseudopotential projector is also|
 | read in if there is any.                                           |
 |                                                                    |
 <<<<<<<<<<<<<<<<<<<<<<<<<<<<<<<<<<<<<<<<<<<<<<<<<<<<<<<<<<<<<<<<<<<<<<




                PAO radial cut off (Bohr) = 16

 Read in pseudopotential file is li.gga.psp.1
                     pseudopotential type = 
          exchange-correlation functional = XC_GGA_X_PBE+XC_GGA_C_PBE
                 nonlocal core correction = 0
                        valence electrons = 1
                                     lmax = 0
                           number of zeta = 0
                     number of projectors = 0
                PAO radial cut off (Bohr) = 16

 Read in pseudopotential file is mg.gga.psp
                     pseudopotential type = 
          exchange-correlation functional = XC_GGA_X_PBE+XC_GGA_C_PBE
                 nonlocal core correction = 0
                        valence electrons = 2
                                     lmax = 0
                           number of zeta = 0
                     number of projectors = 0
                PAO radial cut off (Bohr) = 16

 Read in pseudopotential file is al.gga.psp
                     pseudopotential type = 
          exchange-correlation functional = XC_GGA_X_PBE+XC_GGA_C_PBE
                 nonlocal core correction = 0
                        valence electrons = 3
                                     lmax = 0
                           number of zeta = 0
                     number of projectors = 0
Notice: symbol 'Li_locpsp' is not an element symbol!!!! set the covalent radius to be 0.
Notice: symbol 'mg_locpsp' is not an element symbol!!!! set the covalent radius to be 0.
Notice: symbol 'al_locpsp' is not an element symbol!!!! set the covalent radius to be 0.
     initial pseudo atomic orbital number = 0
                                   NLOCAL = 144




 >>>>>>>>>>>>>>>>>>>>>>>>>>>>>>>>>>>>>>>>>>>>>>>>>>>>>>>>>>>>>>>>>>>>>>
 |                                                                    |
 | Setup plane waves of charge/potential:                             |
 | Use the energy cutoff and the lattice vectors to generate the      |
 | dimensions of FFT grid. The number of FFT grid on each processor   |
 | is 'nrxx'. The number of plane wave basis in reciprocal space is   |
 | different for charege/potential and wave functions. We also set    |
 | the 'sticks' for the parallel of FFT. The number of plane waves    |
 | is 'npw' in each processor.                                        |
 <<<<<<<<<<<<<<<<<<<<<<<<<<<<<<<<<<<<<<<<<<<<<<<<<<<<<<<<<<<<<<<<<<<<<<





 SETUP THE PLANE WAVE BASIS
 energy cutoff for charge/potential (unit:Ry) = 235.196
          [fft grid for charge/potential] = 60, 60, 96
                      [fft grid division] = 1, 1, 1
      [big fft grid for charge/potential] = 60, 60, 96
                                     nbxx = 345600
                                     nrxx = 345600

 SETUP PLANE WAVES FOR CHARGE/POTENTIAL
                    number of plane waves = 345600
                         number of sticks = 3600

 PARALLEL PW FOR CHARGE/POTENTIAL
     PROC   COLUMNS(POT)             PW
        1           3600         345600
 --------------- sum -------------------
        1           3600         345600
                            number of |g| = 21413
                                  max |g| = 112.181
                                  min |g| = 0

 SETUP THE ELECTRONS NUMBER
            electron number of element Li = 1
      total electron number of element Li = 1
            electron number of element Mg = 2
      total electron number of element Mg = 28
            electron number of element Al = 3
      total electron number of element Al = 3
            AUTOSET number of electrons:  = 32
 DONE : SETUP UNITCELL Time : 2.10402 (SEC)





 >>>>>>>>>>>>>>>>>>>>>>>>>>>>>>>>>>>>>>>>>>>>>>>>>>>>>>>>>>>>>>>>>>>>>>
 |                                                                    |
 | Doing symmetry analysis:                                           |
 | We calculate the norm of 3 vectors and the angles between them,    |
 | the type of Bravais lattice is given. We can judge if the unticell |
 | is a primitive cell. Finally we give the point group operation for |
 | this unitcell. We we use the point group operations to do symmetry |
 | analysis on given k-point mesh and the charge density.             |
 |                                                                    |
 <<<<<<<<<<<<<<<<<<<<<<<<<<<<<<<<<<<<<<<<<<<<<<<<<<<<<<<<<<<<<<<<<<<<<<




 LATTICE VECTORS: (CARTESIAN COORDINATE: IN UNIT OF A0)
             +3.14938            -5.45488                  +0
             +3.14938            +5.45488                  +0
                   +0                  +0             +10.366
                       right hand lattice = 1
                                   NORM_A = 6.29876
                                   NORM_B = 6.29876
                                   NORM_C = 10.366
                           ALPHA (DEGREE) = 120
                           BETA  (DEGREE) = 90
                           GAMMA (DEGREE) = 90
                             BRAVAIS TYPE = 4
                     BRAVAIS LATTICE NAME = 04. Hexagonal cell
                                    IBRAV = 4
                                  BRAVAIS = HEXAGONAL CELL
                       LATTICE CONSTANT A = 6.29876
                                C/A RATIO = 1.64572
                                    ibrav = 4
                        ROTATION MATRICES = 24
              PURE POINT GROUP OPERATIONS = 24
                   SPACE GROUP OPERATIONS = 24
                                       C2 = 7
                                       C3 = 2
                                       C4 = 0
                                       C6 = 2
                                       S1 = 7
                                       S3 = 2
                                       S4 = 0
                                       S6 = 2
                              POINT GROUP = D_6h
Warning : If the optimal symmetric configuration is not the input configuration, 
you have to manually change configurations, ABACUS would only calculate the input structure.
 DONE : SYMMETRY Time : 2.16818 (SEC)





 >>>>>>>>>>>>>>>>>>>>>>>>>>>>>>>>>>>>>>>>>>>>>>>>>>>>>>>>>>>>>>>>>>>>>>
 |                                                                    |
 | Setup K-points                                                     |
 | We setup the k-points according to input parameters.               |
 | The reduced k-points are set according to symmetry operations.     |
 | We treat the spin as another set of k-points.                      |
 |                                                                    |
 <<<<<<<<<<<<<<<<<<<<<<<<<<<<<<<<<<<<<<<<<<<<<<<<<<<<<<<<<<<<<<<<<<<<<<





 SETUP K-POINTS
                                    nspin = 1
                   Input type of k points = Monkhorst-Pack(Gamma)
                                   nkstot = 1
                               nkstot_ibz = 1
      IBZ             DirectX             DirectY             DirectZ              Weight    ibz2bz
        1                   0                   0                   0                   1         0
                               nkstot now = 1

  KPOINTS            DIRECT_X            DIRECT_Y            DIRECT_Z              WEIGHT
        1                   0                   0                   0                   1

           k-point number in this process = 1
       minimum distributed K point number = 1

  KPOINTS         CARTESIAN_X         CARTESIAN_Y         CARTESIAN_Z              WEIGHT
        1                   0                   0                   0                   2

  KPOINTS            DIRECT_X            DIRECT_Y            DIRECT_Z              WEIGHT
        1                   0                   0                   0                   2
 DONE : INIT K-POINTS Time : 2.17438 (SEC)

 DONE : INIT BASIS Time : 3.01404 (SEC)

 DONE : INIT PHI Time : 3.01514 (SEC)


 SETUP NONLOCAL PSEUDOPOTENTIALS IN PLANE WAVE BASIS
 Li non-local projectors:
 Mg non-local projectors:
 Al non-local projectors:
      TOTAL NUMBER OF NONLOCAL PROJECTORS = 0

 nhm = 0, not allocate some matrix. DONE : LOCAL POTENTIAL Time : 11.1803 (SEC)


 Init Non-Local PseudoPotential table : 
 Init Non-Local-Pseudopotential done.
 DONE : NON-LOCAL POTENTIAL Time : 11.1819 (SEC)

Successful completion of Potential's registration : local
Successful completion of Potential's registration : hartree
Successful completion of Potential's registration : xc
                                 init_chg = atomic
 DONE : INIT POTENTIAL Time : 21.6456 (SEC)

 DONE : INIT OPTIMIZATION Time : 21.6487 (SEC)

 DONE : INIT KEDF Time : 21.673 (SEC)


 charge density convergence is achieved
 final etot is -404.147 eV



 ><><><><><><><><><><><><><><><><><><><><><><

    TOTAL-FORCE (eV/Angstrom)

 ><><><><><><><><><><><><><><><><><><><><><><

     atom              x              y              z
      Li1              0              0              0
      Mg1    +0.01346709    -0.00777523              0
      Mg2    -0.01579239    +0.00911774              0
      Mg3    -0.01346709    -0.00777523              0
      Mg4    +0.01579239    +0.00911774              0
      Mg5              0    +0.01555046              0
      Mg6              0    -0.01823549              0
      Mg7              0    +0.03045199    -0.03385892
      Mg8              0    +0.03045199    +0.03385892
      Mg9    -0.02637219    -0.01522599    -0.03385892
     Mg10    -0.02637219    -0.01522599    +0.03385892
     Mg11    +0.02637219    -0.01522599    -0.03385892
     Mg12    +0.02637219    -0.01522599    +0.03385892
     Mg13              0              0    +0.02463144
     Mg14              0              0    -0.02463144
      Al1              0              0              0


 ><><><><><><><><><><><><><><><><><><><><><><

 TOTAL-STRESS (KBAR)

 ><><><><><><><><><><><><><><><><><><><><><><

      -16.901944      +0.000000      -0.000000
       +0.000000     -16.901944      -0.000000
       -0.000000      -0.000000     -22.057306
 TOTAL-PRESSURE: -18.620398 KBAR


 --------------------------------------------
 !FINAL_ETOT_IS -404.1465368703389345 eV
 --------------------------------------------






  |CLASS_NAME---------|NAME---------------|TIME(Sec)-----|CALLS----|AVG------|PER%-------
                                      total     +441.95626        21    +21.05   +100.00%
                 Driver         driver_line     +441.89887         1   +441.90    +99.99%
               PW_Basis      setuptransform       +1.84555         1     +1.85     +0.42%
                 mymath            heapsort       +0.12513      1082     +0.00     +0.03%
               PW_Basis  setup_struc_factor       +0.83938         1     +0.84     +0.19%
              ppcell_vl           init_vloc       +8.16236         1     +8.16     +1.85%
                 Charge          atomic_rho       +8.52652         1     +8.53     +1.93%
               PW_Basis          recip2real     +115.60222      3179     +0.04    +26.16%
               PW_Basis    gathers_scatterp      +17.45685      3179     +0.01     +3.95%
              Potential            init_pot       +1.87183         1     +1.87     +0.42%
              Potential  update_from_charge     +238.37378       244     +0.98    +53.94%
              Potential         cal_fixed_v       +0.17688         1     +0.18     +0.04%
               PotLocal         cal_fixed_v       +0.17519         1     +0.18     +0.04%
              Potential           cal_v_eff     +238.19492       244     +0.98    +53.90%
           H_Hartree_pw           v_hartree      +23.28435       244     +0.10     +5.27%
               PW_Basis          real2recip     +114.10471      3174     +0.04    +25.82%
               PW_Basis    gatherp_scatters      +11.65817      3174     +0.00     +2.64%
                  PotXC           cal_v_eff     +213.80458       244     +0.88    +48.38%
          XC_Functional                v_xc     +203.15423       122     +1.67    +45.97%
          XC_Functional          v_xc_libxc     +211.85341       244     +0.87    +47.94%
             ESolver_OF                 Run     +406.96130         1   +406.96    +92.08%
               KEDF_LKT       LKT_potential     +137.83552       243     +0.57    +31.19%
                KEDF_vW        vw_potential      +21.97780       243     +0.09     +4.97%
                 Forces       cal_force_loc       +0.69765         1     +0.70     +0.16%
                 Forces        cal_force_ew       +0.67225         1     +0.67     +0.15%
           OF_Stress_PW          cal_stress      +11.32044         1    +11.32     +2.56%
            Stress_Func          stress_ewa       +0.66706         1     +0.67     +0.15%
            Stress_Func          stress_gga       +1.03450         1     +1.03     +0.23%
            Stress_Func          stress_loc       +9.58539         1     +9.59     +2.17%
 ----------------------------------------------------------------------------------------

 CLASS_NAME---------|NAME---------------|MEMORY(MB)--------
                                         +42.2932
             PW_Basis           struc_fac       +15.8203
               Charge                 rho        +2.6367
               Charge            rho_save        +2.6367
               Charge                rhog        +2.6367
               Charge           rhog_save        +2.6367
               Charge               kin_r        +2.6367
               Charge          kin_r_save        +2.6367
               Charge            rho_core        +2.6367
               Charge           rhog_core        +2.6367
            Potential   v_effective_fixed        +2.6367
            Potential              vr_eff        +2.6367
 ----------------------------------------------------------

 Start  Time  : Mon May 15 13:23:29 2023
 Finish Time  : Mon May 15 13:30:51 2023
 Total  Time  : 0 h 7 mins 22 secs 
