 *********************************************************
 *                                                       *
 *                  WELCOME TO ABACUS v3.0               *
 *                                                       *
 *            'Atomic-orbital Based Ab-initio            *
 *                  Computation at UStc'                 *
 *                                                       *
 *          Website: http://abacus.ustc.edu.cn/          *
 *                                                       *
 *********************************************************
 Mon Apr 17 15:02:18 2023
 MAKE THE DIR         : OUT.blpstest/
Notice: symbol 'mg_locpsp' is not an element symbol!!!! set the covalent radius to be 0.
 UNIFORM GRID DIM     : 32 * 32 * 32
 UNIFORM GRID DIM(BIG): 32 * 32 * 32
func,idXC_GGA_X_PBE 101
func,idXC_GGA_C_PBE 130
 DONE(0.16191    SEC) : SETUP UNITCELL
 DONE(0.214082   SEC) : SYMMETRY
 DONE(0.565863   SEC) : INIT K-POINTS
 ---------------------------------------------------------
 Self-consistent calculations for electrons
 ---------------------------------------------------------
 SPIN    KPOINTS         PROCESSORS  
 1       256             1           
 ---------------------------------------------------------
 Use plane wave basis
 ---------------------------------------------------------
 ELEMENT NATOM       XC          
 Mg      1           
 ---------------------------------------------------------
 Initial plane wave basis and FFT box
 ---------------------------------------------------------
 DONE(0.567388   SEC) : INIT BASIS
 DONE(0.567413   SEC) : INIT PHI
 DONE(0.629123   SEC) : LOCAL POTENTIAL
 DONE(0.629164   SEC) : NON-LOCAL POTENTIAL
 START CHARGE      : atomic
 DONE(0.749532   SEC) : INIT POTENTIAL
 DONE(0.749638   SEC) : INIT OPTIMIZATION
 DONE(0.751888   SEC) : INIT KEDF
======================== Running OFDFT ========================
Iter        Etot(Ha)          Theta      PotNorm     deltaE(Ha)
0     -8.500781160734e-01   2.000e-01   9.993e-02   -8.501e-01  
1     -8.880057408782e-01   9.548e-02   5.770e-02   -3.793e-02  
2     -8.888928848157e-01   9.600e-03   5.407e-03   -8.871e-04  
3     -8.889014308246e-01   8.398e-04   2.161e-03   -8.546e-06  
4     -8.889050403144e-01   1.240e-03   9.500e-04   -3.609e-06  
5     -8.889054564689e-01   3.561e-04   2.237e-04   -4.162e-07  
6     -8.889054963443e-01   1.171e-04   1.298e-04   -3.988e-08  

  |CLASS_NAME---------|NAME---------------|TIME(Sec)-----|CALLS----|AVG------|PER%-------
                       total               18.433         21        0.88      1e+02     %
   Driver              driver_line         18.422         1         18        1e+02     %
   PW_Basis            setuptransform      0.13876        1         0.14      0.75      %
   PW_Basis            recip2real          2.4553         1385      0.0018    13        %
   PW_Basis            gathers_scatterp    0.4247         1385      0.00031   2.3       %
   Potential           update_from_charge  11.291         154       0.073     61        %
   Potential           cal_v_eff           11.287         154       0.073     61        %
   H_Hartree_pw        v_hartree           0.84941        154       0.0055    4.6       %
   PW_Basis            real2recip          3.4123         1691      0.002     19        %
   PW_Basis            gatherp_scatters    0.48337        1691      0.00029   2.6       %
   PotXC               cal_v_eff           10.357         154       0.067     56        %
   XC_Functional       v_xc                8.7617         77        0.11      48        %
   XC_Functional       v_xc_libxc          10.091         154       0.066     55        %
   ESolver_OF          Run                 17.676         1         18        96        %
   KEDF_TF             tf_potential        1.0546         153       0.0069    5.7       %
   KEDF_WT             wt_potential        4.0666         153       0.027     22        %
   KEDF_vW             vw_potential        0.79079        153       0.0052    4.3       %
 ----------------------------------------------------------------------------------------

 START  Time  : Mon Apr 17 15:02:18 2023
 FINISH Time  : Mon Apr 17 15:02:36 2023
 TOTAL  Time  : 18
 SEE INFORMATION IN : OUT.blpstest/
