                                                                                     
                             WELCOME TO ABACUS v3.0                                  
                                                                                     
               'Atomic-orbital Based Ab-initio Computation at UStc'                  
                                                                                     
                     Website: http://abacus.ustc.edu.cn/                             
                                                                                     
    Version: Parallel, in development
    Processor Number is 1
    Start Time is Mon May 15 13:23:12 2023
                                                                                     
 ------------------------------------------------------------------------------------

 READING GENERAL INFORMATION
                           global_out_dir = OUT.oftest/
                           global_in_card = INPUT
                               pseudo_dir = 
                              orbital_dir = 
                                    DRANK = 1
                                    DSIZE = 1
                                   DCOLOR = 1
                                    GRANK = 1
                                    GSIZE = 1
 The esolver type has been set to : ofdft




 >>>>>>>>>>>>>>>>>>>>>>>>>>>>>>>>>>>>>>>>>>>>>>>>>>>>>>>>>>>>>>>>>>>>>>
 |                                                                    |
 | Reading atom information in unitcell:                              |
 | From the input file and the structure file we know the number of   |
 | different elments in this unitcell, then we list the detail        |
 | information for each element, especially the zeta and polar atomic |
 | orbital number for each element. The total atom number is counted. |
 | We calculate the nearest atom distance for each atom and show the  |
 | Cartesian and Direct coordinates for each atom. We list the file   |
 | address for atomic orbitals. The volume and the lattice vectors    |
 | in real and reciprocal space is also shown.                        |
 |                                                                    |
 <<<<<<<<<<<<<<<<<<<<<<<<<<<<<<<<<<<<<<<<<<<<<<<<<<<<<<<<<<<<<<<<<<<<<<




 READING UNITCELL INFORMATION
                                    ntype = 3
                 atom label for species 1 = Li
                 atom label for species 2 = Mg
                 atom label for species 3 = Al
                  lattice constant (Bohr) = 1.88973
              lattice constant (Angstrom) = 1

 READING ATOM TYPE 1
                               atom label = Li
                      L=0, number of zeta = 1
                      L=1, number of zeta = 1
                      L=2, number of zeta = 1
             number of atom for this type = 2
                      start magnetization = FALSE
                      start magnetization = FALSE

 READING ATOM TYPE 2
                               atom label = Mg
                      L=0, number of zeta = 1
                      L=1, number of zeta = 1
                      L=2, number of zeta = 1
             number of atom for this type = 12
                      start magnetization = FALSE
                      start magnetization = FALSE
                      start magnetization = FALSE
                      start magnetization = FALSE
                      start magnetization = FALSE
                      start magnetization = FALSE
                      start magnetization = FALSE
                      start magnetization = FALSE
                      start magnetization = FALSE
                      start magnetization = FALSE
                      start magnetization = FALSE
                      start magnetization = FALSE

 READING ATOM TYPE 3
                               atom label = Al
                      L=0, number of zeta = 1
                      L=1, number of zeta = 1
                      L=2, number of zeta = 1
             number of atom for this type = 2
                      start magnetization = FALSE
                      start magnetization = FALSE

                        TOTAL ATOM NUMBER = 16

 DIRECT COORDINATES
         atom                   x                   y                   z                 mag                  vx                  vy                  vz
     taud_Li1                 0.5            0.169011                 0.5                   0                   0                   0                   0
     taud_Li2                   0            0.669011                 0.5                   0                   0                   0                   0
     taud_Mg1            0.252023            0.084911                   0                   0                   0                   0                   0
     taud_Mg2            0.747977            0.084911                   0                   0                   0                   0                   0
     taud_Mg3                 0.5            0.832794                   0                   0                   0                   0                   0
     taud_Mg4            0.245495            0.914966                 0.5                   0                   0                   0                   0
     taud_Mg5            0.754505            0.914966                 0.5                   0                   0                   0                   0
     taud_Mg6                 0.5            0.666273                 0.5                   0                   0                   0                   0
     taud_Mg7            0.752023            0.584911                   0                   0                   0                   0                   0
     taud_Mg8            0.247977            0.584911                   0                   0                   0                   0                   0
     taud_Mg9                   0            0.332794                   0                   0                   0                   0                   0
    taud_Mg10            0.745495            0.414966                 0.5                   0                   0                   0                   0
    taud_Mg11            0.254505            0.414966                 0.5                   0                   0                   0                   0
    taud_Mg12                   0            0.166273                 0.5                   0                   0                   0                   0
     taud_Al1                 0.5            0.332168                   0                   0                   0                   0                   0
     taud_Al2                   0            0.832168                   0                   0                   0                   0                   0


                          Volume (Bohr^3) = 2317.45
                             Volume (A^3) = 343.411

 Lattice vectors: (Cartesian coordinate: in unit of a_0)
             +6.27327                  +0                  +0
                   +0            +10.8406                  +0
                   +0                  +0             +5.0497
 Reciprocal vectors: (Cartesian coordinate: in unit of 2 pi/a_0)
            +0.159407                  -0                  +0
                   -0          +0.0922455                  -0
                   +0                  -0           +0.198032




 >>>>>>>>>>>>>>>>>>>>>>>>>>>>>>>>>>>>>>>>>>>>>>>>>>>>>>>>>>>>>>>>>>>>>>
 |                                                                    |
 | Reading pseudopotentials files:                                    |
 | The pseudopotential file is in UPF format. The 'NC' indicates that |
 | the type of pseudopotential is 'norm conserving'. Functional of    |
 | exchange and correlation is decided by 4 given parameters in UPF   |
 | file.  We also read in the 'core correction' if there exists.      |
 | Also we can read the valence electrons number and the maximal      |
 | angular momentum used in this pseudopotential. We also read in the |
 | trail wave function, trail atomic density and local-pseudopotential|
 | on logrithmic grid. The non-local pseudopotential projector is also|
 | read in if there is any.                                           |
 |                                                                    |
 <<<<<<<<<<<<<<<<<<<<<<<<<<<<<<<<<<<<<<<<<<<<<<<<<<<<<<<<<<<<<<<<<<<<<<




                PAO radial cut off (Bohr) = 16

 Read in pseudopotential file is li.gga.psp.1
                     pseudopotential type = 
          exchange-correlation functional = XC_GGA_X_PBE+XC_GGA_C_PBE
                 nonlocal core correction = 0
                        valence electrons = 1
                                     lmax = 0
                           number of zeta = 0
                     number of projectors = 0
                PAO radial cut off (Bohr) = 16

 Read in pseudopotential file is mg.gga.psp
                     pseudopotential type = 
          exchange-correlation functional = XC_GGA_X_PBE+XC_GGA_C_PBE
                 nonlocal core correction = 0
                        valence electrons = 2
                                     lmax = 0
                           number of zeta = 0
                     number of projectors = 0
                PAO radial cut off (Bohr) = 16

 Read in pseudopotential file is al.gga.psp
                     pseudopotential type = 
          exchange-correlation functional = XC_GGA_X_PBE+XC_GGA_C_PBE
                 nonlocal core correction = 0
                        valence electrons = 3
                                     lmax = 0
                           number of zeta = 0
                     number of projectors = 0
Notice: symbol 'Li_locpsp' is not an element symbol!!!! set the covalent radius to be 0.
Notice: symbol 'mg_locpsp' is not an element symbol!!!! set the covalent radius to be 0.
Notice: symbol 'al_locpsp' is not an element symbol!!!! set the covalent radius to be 0.
     initial pseudo atomic orbital number = 0
                                   NLOCAL = 144




 >>>>>>>>>>>>>>>>>>>>>>>>>>>>>>>>>>>>>>>>>>>>>>>>>>>>>>>>>>>>>>>>>>>>>>
 |                                                                    |
 | Setup plane waves of charge/potential:                             |
 | Use the energy cutoff and the lattice vectors to generate the      |
 | dimensions of FFT grid. The number of FFT grid on each processor   |
 | is 'nrxx'. The number of plane wave basis in reciprocal space is   |
 | different for charege/potential and wave functions. We also set    |
 | the 'sticks' for the parallel of FFT. The number of plane waves    |
 | is 'npw' in each processor.                                        |
 <<<<<<<<<<<<<<<<<<<<<<<<<<<<<<<<<<<<<<<<<<<<<<<<<<<<<<<<<<<<<<<<<<<<<<





 SETUP THE PLANE WAVE BASIS
 energy cutoff for charge/potential (unit:Ry) = 235.196
          [fft grid for charge/potential] = 60, 108, 48
                      [fft grid division] = 1, 1, 1
      [big fft grid for charge/potential] = 60, 108, 48
                                     nbxx = 311040
                                     nrxx = 311040

 SETUP PLANE WAVES FOR CHARGE/POTENTIAL
                    number of plane waves = 311040
                         number of sticks = 6480

 PARALLEL PW FOR CHARGE/POTENTIAL
     PROC   COLUMNS(POT)             PW
        1           6480         311040
 --------------- sum -------------------
        1           6480         311040
                            number of |g| = 42625
                                  max |g| = 70.271
                                  min |g| = 0

 SETUP THE ELECTRONS NUMBER
            electron number of element Li = 1
      total electron number of element Li = 2
            electron number of element Mg = 2
      total electron number of element Mg = 24
            electron number of element Al = 3
      total electron number of element Al = 6
            AUTOSET number of electrons:  = 32
 DONE : SETUP UNITCELL Time : 2.89123 (SEC)





 >>>>>>>>>>>>>>>>>>>>>>>>>>>>>>>>>>>>>>>>>>>>>>>>>>>>>>>>>>>>>>>>>>>>>>
 |                                                                    |
 | Doing symmetry analysis:                                           |
 | We calculate the norm of 3 vectors and the angles between them,    |
 | the type of Bravais lattice is given. We can judge if the unticell |
 | is a primitive cell. Finally we give the point group operation for |
 | this unitcell. We we use the point group operations to do symmetry |
 | analysis on given k-point mesh and the charge density.             |
 |                                                                    |
 <<<<<<<<<<<<<<<<<<<<<<<<<<<<<<<<<<<<<<<<<<<<<<<<<<<<<<<<<<<<<<<<<<<<<<




 LATTICE VECTORS: (CARTESIAN COORDINATE: IN UNIT OF A0)
             +6.27327                  +0                  +0
                   +0            +10.8406                  +0
                   +0                  +0             +5.0497
                       right hand lattice = 1
                                   NORM_A = 6.27327
                                   NORM_B = 10.8406
                                   NORM_C = 5.0497
                           ALPHA (DEGREE) = 90
                           BETA  (DEGREE) = 90
                           GAMMA (DEGREE) = 90
                             BRAVAIS TYPE = 8
                     BRAVAIS LATTICE NAME = 08. Orthorhombic P(simple)
                                    IBRAV = 8
                                  BRAVAIS = SIMPLE ORTHORHOMBIC CELL
                       LATTICE CONSTANT A = 6.27327
                                B/A RATIO = 1.72807
                                C/A RATIO = 0.804955
                                    ibrav = 8
                        ROTATION MATRICES = 8
              PURE POINT GROUP OPERATIONS = 8
                   SPACE GROUP OPERATIONS = 8
                                       C2 = 3
                                       C3 = 0
                                       C4 = 0
                                       C6 = 0
                                       S1 = 3
                                       S3 = 0
                                       S4 = 0
                                       S6 = 0
                              POINT GROUP = D_2h
Warning : If the optimal symmetric configuration is not the input configuration, 
you have to manually change configurations, ABACUS would only calculate the input structure.
 DONE : SYMMETRY Time : 2.9562 (SEC)





 >>>>>>>>>>>>>>>>>>>>>>>>>>>>>>>>>>>>>>>>>>>>>>>>>>>>>>>>>>>>>>>>>>>>>>
 |                                                                    |
 | Setup K-points                                                     |
 | We setup the k-points according to input parameters.               |
 | The reduced k-points are set according to symmetry operations.     |
 | We treat the spin as another set of k-points.                      |
 |                                                                    |
 <<<<<<<<<<<<<<<<<<<<<<<<<<<<<<<<<<<<<<<<<<<<<<<<<<<<<<<<<<<<<<<<<<<<<<





 SETUP K-POINTS
                                    nspin = 1
                   Input type of k points = Monkhorst-Pack(Gamma)
                                   nkstot = 1
                               nkstot_ibz = 1
      IBZ             DirectX             DirectY             DirectZ              Weight    ibz2bz
        1                   0                   0                   0                   1         0
                               nkstot now = 1

  KPOINTS            DIRECT_X            DIRECT_Y            DIRECT_Z              WEIGHT
        1                   0                   0                   0                   1

           k-point number in this process = 1
       minimum distributed K point number = 1

  KPOINTS         CARTESIAN_X         CARTESIAN_Y         CARTESIAN_Z              WEIGHT
        1                   0                   0                   0                   2

  KPOINTS            DIRECT_X            DIRECT_Y            DIRECT_Z              WEIGHT
        1                   0                   0                   0                   2
 DONE : INIT K-POINTS Time : 2.96021 (SEC)

 DONE : INIT BASIS Time : 3.54965 (SEC)

 DONE : INIT PHI Time : 3.55158 (SEC)


 SETUP NONLOCAL PSEUDOPOTENTIALS IN PLANE WAVE BASIS
 Li non-local projectors:
 Mg non-local projectors:
 Al non-local projectors:
      TOTAL NUMBER OF NONLOCAL PROJECTORS = 0

 nhm = 0, not allocate some matrix. DONE : LOCAL POTENTIAL Time : 17.5629 (SEC)


 Init Non-Local PseudoPotential table : 
 Init Non-Local-Pseudopotential done.
 DONE : NON-LOCAL POTENTIAL Time : 17.5642 (SEC)

Successful completion of Potential's registration : local
Successful completion of Potential's registration : hartree
Successful completion of Potential's registration : xc
                                 init_chg = atomic
 DONE : INIT POTENTIAL Time : 34.0687 (SEC)

 DONE : INIT OPTIMIZATION Time : 34.0741 (SEC)

 DONE : INIT KEDF Time : 34.0961 (SEC)


 charge density convergence is achieved
 final etot is -420.811 eV



 ><><><><><><><><><><><><><><><><><><><><><><

    TOTAL-FORCE (eV/Angstrom)

 ><><><><><><><><><><><><><><><><><><><><><><

     atom              x              y              z
      Li1              0    -0.01856528              0
      Li2              0    -0.01856528              0
      Mg1    +0.02091989    -0.04805367              0
      Mg2    -0.02091989    -0.04805367              0
      Mg3              0    +0.07346594              0
      Mg4    +0.01465414    -0.02785794              0
      Mg5    -0.01465414    -0.02785794              0
      Mg6              0    +0.00459966              0
      Mg7    +0.02091989    -0.04805367              0
      Mg8    -0.02091989    -0.04805367              0
      Mg9              0    +0.07346594              0
     Mg10    +0.01465414    -0.02785794              0
     Mg11    -0.01465414    -0.02785794              0
     Mg12              0    +0.00459966              0
      Al1              0    +0.09232287              0
      Al2              0    +0.09232287              0


 ><><><><><><><><><><><><><><><><><><><><><><

 TOTAL-STRESS (KBAR)

 ><><><><><><><><><><><><><><><><><><><><><><

      -30.096618      +0.000000      +0.000000
       +0.000000     -30.835615      +0.000000
       +0.000000      +0.000000     -22.766644
 TOTAL-PRESSURE: -27.899626 KBAR


 --------------------------------------------
 !FINAL_ETOT_IS -420.8110329034304868 eV
 --------------------------------------------






  |CLASS_NAME---------|NAME---------------|TIME(Sec)-----|CALLS----|AVG------|PER%-------
                                      total     +322.57112        21    +15.36   +100.00%
                 Driver         driver_line     +322.51188         1   +322.51    +99.98%
               PW_Basis      setuptransform       +2.35090         1     +2.35     +0.73%
                 mymath            heapsort       +0.33462       486     +0.00     +0.10%
               PW_Basis  setup_struc_factor       +0.58910         1     +0.59     +0.18%
              ppcell_vl           init_vloc      +14.00849         1    +14.01     +4.34%
                 Charge          atomic_rho      +14.43840         1    +14.44     +4.48%
               PW_Basis          recip2real      +74.06446      2503     +0.03    +22.96%
               PW_Basis    gathers_scatterp      +13.14133      2503     +0.01     +4.07%
              Potential            init_pot       +2.00004         1     +2.00     +0.62%
              Potential  update_from_charge     +164.11835       192     +0.85    +50.88%
              Potential         cal_fixed_v       +0.20405         1     +0.20     +0.06%
               PotLocal         cal_fixed_v       +0.20263         1     +0.20     +0.06%
              Potential           cal_v_eff     +163.91286       192     +0.85    +50.81%
           H_Hartree_pw           v_hartree      +16.01133       192     +0.08     +4.96%
               PW_Basis          real2recip      +79.43664      2498     +0.03    +24.63%
               PW_Basis    gatherp_scatters       +8.89853      2498     +0.00     +2.76%
                  PotXC           cal_v_eff     +147.02371       192     +0.77    +45.58%
          XC_Functional                v_xc     +136.66845        96     +1.42    +42.37%
          XC_Functional          v_xc_libxc     +145.74625       192     +0.76    +45.18%
             ESolver_OF                 Run     +272.00848         1   +272.01    +84.33%
               KEDF_LKT       LKT_potential      +88.08518       191     +0.46    +27.31%
                KEDF_vW        vw_potential      +14.51043       191     +0.08     +4.50%
                 Forces       cal_force_loc       +0.34638         1     +0.35     +0.11%
                 Forces        cal_force_ew       +0.32113         1     +0.32     +0.10%
           OF_Stress_PW          cal_stress      +15.40086         1    +15.40     +4.77%
            Stress_Func          stress_ewa       +0.33913         1     +0.34     +0.11%
            Stress_Func          stress_gga       +0.59120         1     +0.59     +0.18%
            Stress_Func          stress_loc      +14.44275         1    +14.44     +4.48%
 ----------------------------------------------------------------------------------------

 CLASS_NAME---------|NAME---------------|MEMORY(MB)--------
                                         +38.0744
             PW_Basis           struc_fac       +14.2383
               Charge                 rho        +2.3730
               Charge            rho_save        +2.3730
               Charge                rhog        +2.3730
               Charge           rhog_save        +2.3730
               Charge               kin_r        +2.3730
               Charge          kin_r_save        +2.3730
               Charge            rho_core        +2.3730
               Charge           rhog_core        +2.3730
            Potential   v_effective_fixed        +2.3730
            Potential              vr_eff        +2.3730
 ----------------------------------------------------------

 Start  Time  : Mon May 15 13:23:12 2023
 Finish Time  : Mon May 15 13:28:34 2023
 Total  Time  : 0 h 5 mins 22 secs 
