 *********************************************************
 *                                                       *
 *                  WELCOME TO ABACUS v3.0               *
 *                                                       *
 *            'Atomic-orbital Based Ab-initio            *
 *                  Computation at UStc'                 *
 *                                                       *
 *          Website: http://abacus.ustc.edu.cn/          *
 *                                                       *
 *********************************************************
 Wed Dec 28 12:30:01 2022
 MAKE THE DIR         : OUT.blpstest/
Notice: symbol 'Li_locpsp' is not an element symbol!!!! set the covalent radius to be 0.
 UNIFORM GRID DIM     : 27 * 27 * 27
 UNIFORM GRID DIM(BIG): 27 * 27 * 27
func,idXC_GGA_X_PBE 101
func,idXC_GGA_C_PBE 130
 DONE(0.183471   SEC) : SETUP UNITCELL
 DONE(0.236442   SEC) : SYMMETRY
 DONE(0.737501   SEC) : INIT K-POINTS
 ---------------------------------------------------------
 Self-consistent calculations for electrons
 ---------------------------------------------------------
 SPIN    KPOINTS         PROCESSORS  
 1       286             1           
 ---------------------------------------------------------
 Use plane wave basis
 ---------------------------------------------------------
 ELEMENT NATOM       XC          
 Li      1           
 ---------------------------------------------------------
 Initial plane wave basis and FFT box
 ---------------------------------------------------------
 DONE(0.851597   SEC) : INIT PLANEWAVE
 MEMORY FOR PSI (MB)  : 27.3405
 DONE(0.882339   SEC) : LOCAL POTENTIAL
 DONE(0.882385   SEC) : NON-LOCAL POTENTIAL
 DONE(0.882465   SEC) : INIT BASIS
 START CHARGE      : atomic
 DONE(0.960385   SEC) : INIT SCF
 ITER   ETOT(eV)       EDIFF(eV)      DRHO       TIME(s)    
 CG1    -7.294208e+00  0.000000e+00   9.173e-03  2.469e+01  
 CG2    -7.386758e+00  -9.255030e-02  1.089e-03  6.450e+00  
 CG3    -7.387427e+00  -6.692227e-04  1.479e-06  7.816e+00  
 CG4    -7.387456e+00  -2.848987e-05  5.715e-07  1.518e+01  
 CG5    -7.387457e+00  -1.548770e-06  6.802e-08  8.794e+00  
 CG6    -7.387457e+00  -5.840640e-08  7.783e-10  7.902e+00  

  |CLASS_NAME---------|NAME---------------|TIME(Sec)-----|CALLS----|AVG------|PER%-------
                       total               71.817         17        4.2       1e+02     %
   Driver              driver_line         71.791         1         72        1e+02     %
   PW_Basis            setuptransform      0.15218        1         0.15      0.21      %
   ESolver_KS_PW       Run                 70.922         1         71        99        %
   Potential           update_from_charge  0.22851        7         0.033     0.32      %
   Potential           cal_v_eff           0.2276         7         0.033     0.32      %
   PotXC               cal_v_eff           0.20992        7         0.03      0.29      %
   XC_Functional       v_xc                41.324         4         10        58        %
   XC_Functional       v_xc_libxc          0.20937        7         0.03      0.29      %
   HSolverPW           solve               70.603         7         10        98        %
   DiagoIterAssist     diagH_subspace      12.931         1716      0.0075    18        %
   OperatorPW          hPsi                65.733         39026     0.0017    92        %
   Operator            EkineticPW          0.27005        39026     6.9e-06   0.38      %
   Operator            VeffPW              65.244         39026     0.0017    91        %
   PW_Basis_K          recip2real          33.484         47035     0.00071   47        %
   PW_Basis_K          gathers_scatterp    2.2113         47035     4.7e-05   3.1       %
   PW_Basis_K          real2recip          29.429         45890     0.00064   41        %
   PW_Basis_K          gatherp_scatters    0.7161         45890     1.6e-05   1         %
   DiagoIterAssist     LAPACK_subspace     0.11914        1716      6.9e-05   0.17      %
   DiagoCG             diag_once           56.109         2002      0.028     78        %
   ElecStatePW         psiToRho            0.86616        7         0.12      1.2       %
 ----------------------------------------------------------------------------------------

 START  Time  : Wed Dec 28 12:30:01 2022
 FINISH Time  : Wed Dec 28 12:31:13 2022
 TOTAL  Time  : 72
 SEE INFORMATION IN : OUT.blpstest/
