 *********************************************************
 *                                                       *
 *                  WELCOME TO ABACUS v3.0               *
 *                                                       *
 *            'Atomic-orbital Based Ab-initio            *
 *                  Computation at UStc'                 *
 *                                                       *
 *          Website: http://abacus.ustc.edu.cn/          *
 *                                                       *
 *********************************************************
 Tue May  2 12:45:52 2023
 MAKE THE DIR         : OUT.blpstest/
Notice: symbol 'al_locpsp' is not an element symbol!!!! set the covalent radius to be 0.
 UNIFORM GRID DIM     : 25 * 25 * 45
 UNIFORM GRID DIM(BIG): 25 * 25 * 45
func,idXC_GGA_X_PBE 101
func,idXC_GGA_C_PBE 130
 DONE(0.122289   SEC) : SETUP UNITCELL
 DONE(0.173287   SEC) : SYMMETRY
 DONE(0.200485   SEC) : INIT K-POINTS
 ---------------------------------------------------------
 Self-consistent calculations for electrons
 ---------------------------------------------------------
 SPIN    KPOINTS         PROCESSORS  
 1       133             1           
 ---------------------------------------------------------
 Use plane wave basis
 ---------------------------------------------------------
 ELEMENT NATOM       XC          
 Al      2           
 ---------------------------------------------------------
 Initial plane wave basis and FFT box
 ---------------------------------------------------------
 DONE(0.205452   SEC) : INIT BASIS
 DONE(0.205472   SEC) : INIT PHI
 DONE(0.375563   SEC) : LOCAL POTENTIAL
 DONE(0.375597   SEC) : NON-LOCAL POTENTIAL
 START CHARGE      : atomic
 DONE(0.615245   SEC) : INIT POTENTIAL
 DONE(0.615395   SEC) : INIT OPTIMIZATION
Default type: double
 DONE(0.617496   SEC) : INIT KEDF
======================== Running OFDFT ========================
Iter        Etot(Ha)          Theta      PotNorm     deltaE(Ha)
0     -3.990167305649e+00   2.000e-01   2.519e-01   -3.990e+00  
1     -4.025765289561e+00   4.636e-02   3.272e-01   -3.560e-02  
2     -4.181675438943e+00   8.121e-02   1.524e-01   -1.559e-01  
3     -4.189029950561e+00   9.926e-03   1.446e-02   -7.355e-03  
4     -4.189146934459e+00   2.345e-03   6.828e-03   -1.170e-04  
5     -4.189165035650e+00   1.050e-03   6.077e-04   -1.810e-05  
6     -4.189165114777e+00   5.322e-05   5.116e-05   -7.913e-08  
7     -4.189165115987e+00   6.802e-06   1.749e-05   -1.210e-09  

  |CLASS_NAME---------|NAME---------------|TIME(Sec)-----|CALLS----|AVG------|PER%-------
                       total               14.913         21        0.71      1e+02     %
   Driver              driver_line         14.907         1         15        1e+02     %
   PW_Basis            setuptransform      0.10466        1         0.1       0.7       %
   ppcell_vl           init_vloc           0.16997        1         0.17      1.1       %
   Charge              atomic_rho          0.18585        1         0.19      1.2       %
   PW_Basis            recip2real          3.0237         1828      0.0017    20        %
   PW_Basis            gathers_scatterp    0.41369        1828      0.00023   2.8       %
   Potential           update_from_charge  8.5767         141       0.061     58        %
   Potential           cal_v_eff           8.5735         141       0.061     57        %
   H_Hartree_pw        v_hartree           0.74224        141       0.0053    5         %
   PW_Basis            real2recip          3.089          1828      0.0017    21        %
   PW_Basis            gatherp_scatters    0.31999        1828      0.00018   2.1       %
   PotXC               cal_v_eff           7.7775         141       0.055     52        %
   XC_Functional       v_xc                7.1643         71        0.1       48        %
   XC_Functional       v_xc_libxc          7.6851         141       0.055     52        %
   ESolver_OF          Run                 14.294         1         14        96        %
   KEDF_LKT            LKT_potential       4.718          140       0.034     32        %
   KEDF_vW             vw_potential        0.62355        140       0.0045    4.2       %
 ----------------------------------------------------------------------------------------

 START  Time  : Tue May  2 12:45:52 2023
 FINISH Time  : Tue May  2 12:46:07 2023
 TOTAL  Time  : 15
 SEE INFORMATION IN : OUT.blpstest/
