 *********************************************************
 *                                                       *
 *                  WELCOME TO ABACUS v3.0               *
 *                                                       *
 *            'Atomic-orbital Based Ab-initio            *
 *                  Computation at UStc'                 *
 *                                                       *
 *          Website: http://abacus.ustc.edu.cn/          *
 *                                                       *
 *********************************************************
 Mon Mar  6 13:51:18 2023
 MAKE THE DIR         : OUT.blpstest/
Notice: symbol 'Li_locpsp' is not an element symbol!!!! set the covalent radius to be 0.
Notice: symbol 'al_locpsp' is not an element symbol!!!! set the covalent radius to be 0.
 UNIFORM GRID DIM     : 36 * 36 * 36
 UNIFORM GRID DIM(BIG): 36 * 36 * 36
func,idXC_GGA_X_PBE 101
func,idXC_GGA_C_PBE 130
 DONE(0.191259   SEC) : SETUP UNITCELL
 DONE(0.220957   SEC) : SYMMETRY
 DONE(0.383864   SEC) : INIT K-POINTS
 ---------------------------------------------------------
 Self-consistent calculations for electrons
 ---------------------------------------------------------
 SPIN    KPOINTS         PROCESSORS  
 1       286             1           
 ---------------------------------------------------------
 Use plane wave basis
 ---------------------------------------------------------
 ELEMENT NATOM       XC          
 Li      1           
 Al      3           
 ---------------------------------------------------------
 Initial plane wave basis and FFT box
 ---------------------------------------------------------
 DONE(0.499236   SEC) : INIT PLANEWAVE
 MEMORY FOR PSI (MB)  : 89.2354
 DONE(0.549906   SEC) : LOCAL POTENTIAL
 DONE(0.549937   SEC) : NON-LOCAL POTENTIAL
 DONE(0.549987   SEC) : INIT BASIS
 START CHARGE      : atomic
 DONE(0.616743   SEC) : INIT SCF
 ITER   ETOT(eV)       EDIFF(eV)      DRHO       TIME(s)    
 CG1    -1.788538e+02  0.000000e+00   7.114e-01  3.602e+01  
 CG2    -1.809993e+02  -2.145547e+00  5.810e-02  1.454e+01  
 CG3    -1.811815e+02  -1.821138e-01  7.542e-03  1.671e+01  
 CG4    -1.811997e+02  -1.821853e-02  2.459e-05  1.619e+01  
 CG5    -1.812007e+02  -9.732869e-04  1.809e-05  2.382e+01  
 CG6    -1.812007e+02  -4.330161e-05  4.668e-08  1.411e+01  
 CG7    -1.812007e+02  -3.246431e-07  1.214e-07  2.235e+01  
 CG8    -1.812007e+02  -1.299959e-07  7.124e-09  1.540e+01  
 CG9    -1.812007e+02  -4.825618e-09  5.764e-10  1.403e+01  

  |CLASS_NAME---------|NAME---------------|TIME(Sec)-----|CALLS----|AVG------|PER%-------
                       total               173.8          17        10        1e+02     %
   Driver              driver_line         173.79         1         1.7e+02   1e+02     %
   PW_Basis            setuptransform      0.16882        1         0.17      0.097     %
   ESolver_KS_PW       Run                 173.24         1         1.7e+02   1e+02     %
   Potential           update_from_charge  0.3408         10        0.034     0.2       %
   Potential           cal_v_eff           0.33962        10        0.034     0.2       %
   PotXC               cal_v_eff           0.31551        10        0.032     0.18      %
   XC_Functional       v_xc                112.94         5         23        65        %
   XC_Functional       v_xc_libxc          0.31318        10        0.031     0.18      %
   HSolverPW           solve               172.8          9         19        99        %
   DiagoIterAssist     diagH_subspace      32.448         2574      0.013     19        %
   OperatorPW          hPsi                154.03         93901     0.0016    89        %
   Operator            EkineticPW          0.49936        93901     5.3e-06   0.29      %
   Operator            VeffPW              153.24         93901     0.0016    88        %
   PW_Basis_K          recip2real          86.666         128252    0.00068   50        %
   PW_Basis_K          gathers_scatterp    7.8132         128252    6.1e-05   4.5       %
   PW_Basis_K          real2recip          68.399         114493    0.0006    39        %
   PW_Basis_K          gatherp_scatters    1.3889         114493    1.2e-05   0.8       %
   DiagoIterAssist     LAPACK_subspace     0.13026        2574      5.1e-05   0.075     %
   DiagoCG             diag_once           128.86         2574      0.05      74        %
   ElecStatePW         psiToRho            10.428         9         1.2       6         %
 ----------------------------------------------------------------------------------------

 START  Time  : Mon Mar  6 13:51:18 2023
 FINISH Time  : Mon Mar  6 13:54:12 2023
 TOTAL  Time  : 1.7e+02
 SEE INFORMATION IN : OUT.blpstest/
