 *********************************************************
 *                                                       *
 *                  WELCOME TO ABACUS v3.0               *
 *                                                       *
 *            'Atomic-orbital Based Ab-initio            *
 *                  Computation at UStc'                 *
 *                                                       *
 *          Website: http://abacus.ustc.edu.cn/          *
 *                                                       *
 *********************************************************
 Mon Mar  6 13:16:44 2023
 MAKE THE DIR         : OUT.blpstest/
Notice: symbol 'Li_locpsp' is not an element symbol!!!! set the covalent radius to be 0.
Notice: symbol 'mg_locpsp' is not an element symbol!!!! set the covalent radius to be 0.
 UNIFORM GRID DIM     : 32 * 32 * 32
 UNIFORM GRID DIM(BIG): 32 * 32 * 32
func,idXC_GGA_X_PBE 101
func,idXC_GGA_C_PBE 130
 DONE(0.13334    SEC) : SETUP UNITCELL
 DONE(0.163941   SEC) : SYMMETRY
 DONE(0.321432   SEC) : INIT K-POINTS
 ---------------------------------------------------------
 Self-consistent calculations for electrons
 ---------------------------------------------------------
 SPIN    KPOINTS         PROCESSORS  
 1       286             1           
 ---------------------------------------------------------
 Use plane wave basis
 ---------------------------------------------------------
 ELEMENT NATOM       XC          
 Li      1           
 Mg      3           
 ---------------------------------------------------------
 Initial plane wave basis and FFT box
 ---------------------------------------------------------
 DONE(0.427493   SEC) : INIT PLANEWAVE
 MEMORY FOR PSI (MB)  : 76.0386
 DONE(0.47818    SEC) : LOCAL POTENTIAL
 DONE(0.47821    SEC) : NON-LOCAL POTENTIAL
 DONE(0.478264   SEC) : INIT BASIS
 START CHARGE      : atomic
 DONE(0.531921   SEC) : INIT SCF
 ITER   ETOT(eV)       EDIFF(eV)      DRHO       TIME(s)    
 CG1    -7.851008e+01  0.000000e+00   2.277e-01  1.825e+01  
 CG2    -7.930712e+01  -7.970435e-01  1.654e-02  6.152e+00  
 CG3    -7.933750e+01  -3.038418e-02  4.964e-05  8.259e+00  
 CG4    -7.933954e+01  -2.040166e-03  1.520e-05  1.212e+01  
 CG5    -7.933955e+01  -1.011224e-05  1.187e-05  8.002e+00  
 CG6    -7.933958e+01  -2.606690e-05  5.814e-09  6.535e+00  
 CG7    -7.933958e+01  -3.479460e-07  1.995e-09  1.258e+01  
 CG8    -7.933958e+01  2.022186e-08   3.072e-09  5.829e+00  
 CG9    -7.933958e+01  -7.202114e-09  1.422e-11  7.454e+00  

  |CLASS_NAME---------|NAME---------------|TIME(Sec)-----|CALLS----|AVG------|PER%-------
                       total               85.725         17        5         1e+02     %
   Driver              driver_line         85.713         1         86        1e+02     %
   PW_Basis            setuptransform      0.11053        1         0.11      0.13      %
   ESolver_KS_PW       Run                 85.235         1         85        99        %
   Potential           update_from_charge  0.22459        10        0.022     0.26      %
   Potential           cal_v_eff           0.22397        10        0.022     0.26      %
   PotXC               cal_v_eff           0.21035        10        0.021     0.25      %
   XC_Functional       v_xc                54.546         5         11        64        %
   XC_Functional       v_xc_libxc          0.20785        10        0.021     0.24      %
   HSolverPW           solve               84.927         9         9.4       99        %
   DiagoIterAssist     diagH_subspace      14.523         2574      0.0056    17        %
   OperatorPW          hPsi                74.029         81663     0.00091   86        %
   Operator            EkineticPW          0.47985        81663     5.9e-06   0.56      %
   Operator            VeffPW              73.296         81663     0.0009    86        %
   PW_Basis_K          recip2real          39.182         109516    0.00036   46        %
   PW_Basis_K          gathers_scatterp    4.652          109516    4.2e-05   5.4       %
   PW_Basis_K          real2recip          33.292         99681     0.00033   39        %
   PW_Basis_K          gatherp_scatters    1.1348         99681     1.1e-05   1.3       %
   DiagoIterAssist     LAPACK_subspace     0.11109        2574      4.3e-05   0.13      %
   DiagoCG             diag_once           65.883         2574      0.026     77        %
   ElecStatePW         psiToRho            3.6498         9         0.41      4.3       %
 ----------------------------------------------------------------------------------------

 START  Time  : Mon Mar  6 13:16:44 2023
 FINISH Time  : Mon Mar  6 13:18:09 2023
 TOTAL  Time  : 85
 SEE INFORMATION IN : OUT.blpstest/
