 *********************************************************
 *                                                       *
 *                  WELCOME TO ABACUS v3.0               *
 *                                                       *
 *            'Atomic-orbital Based Ab-initio            *
 *                  Computation at UStc'                 *
 *                                                       *
 *          Website: http://abacus.ustc.edu.cn/          *
 *                                                       *
 *********************************************************
 Wed Dec 28 12:38:33 2022
 MAKE THE DIR         : OUT.blpstest/
Notice: symbol 'mg_locpsp' is not an element symbol!!!! set the covalent radius to be 0.
 UNIFORM GRID DIM     : 27 * 27 * 27
 UNIFORM GRID DIM(BIG): 27 * 27 * 27
func,idXC_GGA_X_PBE 101
func,idXC_GGA_C_PBE 130
 DONE(0.108519   SEC) : SETUP UNITCELL
 DONE(0.162517   SEC) : SYMMETRY
 DONE(0.514459   SEC) : INIT K-POINTS
 ---------------------------------------------------------
 Self-consistent calculations for electrons
 ---------------------------------------------------------
 SPIN    KPOINTS         PROCESSORS  
 1       256             1           
 ---------------------------------------------------------
 Use plane wave basis
 ---------------------------------------------------------
 ELEMENT NATOM       XC          
 Mg      1           
 ---------------------------------------------------------
 Initial plane wave basis and FFT box
 ---------------------------------------------------------
 DONE(0.578367   SEC) : INIT PLANEWAVE
 MEMORY FOR PSI (MB)  : 24.2812
 DONE(0.590896   SEC) : LOCAL POTENTIAL
 DONE(0.590938   SEC) : NON-LOCAL POTENTIAL
 DONE(0.591007   SEC) : INIT BASIS
 START CHARGE      : atomic
 DONE(0.634476   SEC) : INIT SCF
 ITER   ETOT(eV)       EDIFF(eV)      DRHO       TIME(s)    
 CG1    -2.392375e+01  0.000000e+00   5.153e-02  2.065e+01  
 CG2    -2.411164e+01  -1.878843e-01  4.663e-03  7.994e+00  
 CG3    -2.411552e+01  -3.883257e-03  6.935e-06  9.818e+00  
 CG4    -2.411582e+01  -2.991071e-04  2.428e-06  1.546e+01  
 CG5    -2.411584e+01  -2.480044e-05  3.599e-08  7.717e+00  
 CG6    -2.411585e+01  -5.441865e-07  1.057e-08  1.227e+01  
 CG7    -2.411585e+01  -8.813364e-09  2.086e-10  8.771e+00  

  |CLASS_NAME---------|NAME---------------|TIME(Sec)-----|CALLS----|AVG------|PER%-------
                       total               83.354         17        4.9       1e+02     %
   Driver              driver_line         83.344         1         83        1e+02     %
   ESolver_KS_PW       Run                 82.744         1         83        99        %
   Potential           update_from_charge  0.28375        8         0.035     0.34      %
   Potential           cal_v_eff           0.28245        8         0.035     0.34      %
   PotXC               cal_v_eff           0.25723        8         0.032     0.31      %
   XC_Functional       v_xc                46.952         4         12        56        %
   XC_Functional       v_xc_libxc          0.25633        8         0.032     0.31      %
   HSolverPW           solve               82.361         7         12        99        %
   DiagoIterAssist     diagH_subspace      17.18          1792      0.0096    21        %
   OperatorPW          hPsi                75.216         40438     0.0019    90        %
   Operator            EkineticPW          0.39972        40438     9.9e-06   0.48      %
   Operator            VeffPW              74.505         40438     0.0018    89        %
   PW_Basis_K          recip2real          37.276         51341     0.00073   45        %
   PW_Basis_K          gathers_scatterp    2.8239         51341     5.5e-05   3.4       %
   PW_Basis_K          real2recip          32.42          49398     0.00066   39        %
   PW_Basis_K          gatherp_scatters    1.1187         49398     2.3e-05   1.3       %
   DiagoIterAssist     LAPACK_subspace     0.25049        1792      0.00014   0.3       %
   DiagoCG             diag_once           62.859         1792      0.035     75        %
   ElecStatePW         psiToRho            1.6413         7         0.23      2         %
 ----------------------------------------------------------------------------------------

 START  Time  : Wed Dec 28 12:38:33 2022
 FINISH Time  : Wed Dec 28 12:39:57 2022
 TOTAL  Time  : 84
 SEE INFORMATION IN : OUT.blpstest/
