 *********************************************************
 *                                                       *
 *                  WELCOME TO ABACUS v3.0               *
 *                                                       *
 *            'Atomic-orbital Based Ab-initio            *
 *                  Computation at UStc'                 *
 *                                                       *
 *          Website: http://abacus.ustc.edu.cn/          *
 *                                                       *
 *********************************************************
 Wed Dec 28 12:21:26 2022
 MAKE THE DIR         : OUT.blpstest/
Notice: symbol 'al_locpsp' is not an element symbol!!!! set the covalent radius to be 0.
 UNIFORM GRID DIM     : 25 * 25 * 25
 UNIFORM GRID DIM(BIG): 25 * 25 * 25
func,idXC_GGA_X_PBE 101
func,idXC_GGA_C_PBE 130
 DONE(0.10312    SEC) : SETUP UNITCELL
 DONE(0.180184   SEC) : SYMMETRY
 DONE(0.559617   SEC) : INIT K-POINTS
 ---------------------------------------------------------
 Self-consistent calculations for electrons
 ---------------------------------------------------------
 SPIN    KPOINTS         PROCESSORS  
 1       286             1           
 ---------------------------------------------------------
 Use plane wave basis
 ---------------------------------------------------------
 ELEMENT NATOM       XC          
 Al      1           
 ---------------------------------------------------------
 Initial plane wave basis and FFT box
 ---------------------------------------------------------
 DONE(0.655693   SEC) : INIT PLANEWAVE
 MEMORY FOR PSI (MB)  : 70.4352
 DONE(0.670567   SEC) : LOCAL POTENTIAL
 DONE(0.670621   SEC) : NON-LOCAL POTENTIAL
 DONE(0.670714   SEC) : INIT BASIS
 START CHARGE      : atomic
 DONE(0.710511   SEC) : INIT SCF
 ITER   ETOT(eV)       EDIFF(eV)      DRHO       TIME(s)    
 CG1    -5.657335e+01  0.000000e+00   7.159e-02  2.308e+01  
 CG2    -5.685782e+01  -2.844718e-01  6.866e-03  5.976e+00  
 CG3    -5.686176e+01  -3.945526e-03  4.856e-06  7.259e+00  
 CG4    -5.686199e+01  -2.277791e-04  2.064e-06  1.251e+01  
 CG5    -5.686200e+01  -6.299935e-06  2.045e-08  5.691e+00  
 CG6    -5.686200e+01  -1.300357e-07  2.972e-09  9.145e+00  
 CG7    -5.686200e+01  -1.741950e-09  9.220e-11  5.968e+00  

  |CLASS_NAME---------|NAME---------------|TIME(Sec)-----|CALLS----|AVG------|PER%-------
                       total               70.37          17        4.1       1e+02     %
   Driver              driver_line         70.35          1         70        1e+02     %
   ESolver_KS_PW       Run                 69.683         1         70        99        %
   XC_Functional       v_xc                42.012         4         11        60        %
   HSolverPW           solve               69.544         7         9.9       99        %
   DiagoIterAssist     diagH_subspace      12.295         2002      0.0061    17        %
   OperatorPW          hPsi                62.947         118949    0.00053   89        %
   Operator            EkineticPW          0.3137         118949    2.6e-06   0.45      %
   Operator            VeffPW              62.38          118949    0.00052   89        %
   PW_Basis_K          recip2real          31.496         150119    0.00021   45        %
   PW_Basis_K          gathers_scatterp    2.9876         150119    2e-05     4.2       %
   PW_Basis_K          real2recip          28.654         146977    0.00019   41        %
   PW_Basis_K          gatherp_scatters    0.85006        146977    5.8e-06   1.2       %
   DiagoIterAssist     LAPACK_subspace     0.18227        2002      9.1e-05   0.26      %
   DiagoCG             diag_once           55.641         2002      0.028     79        %
   ElecStatePW         psiToRho            0.62997        7         0.09      0.9       %
 ----------------------------------------------------------------------------------------

 START  Time  : Wed Dec 28 12:21:26 2022
 FINISH Time  : Wed Dec 28 12:22:37 2022
 TOTAL  Time  : 71
 SEE INFORMATION IN : OUT.blpstest/
