 *********************************************************
 *                                                       *
 *                  WELCOME TO ABACUS v3.0               *
 *                                                       *
 *            'Atomic-orbital Based Ab-initio            *
 *                  Computation at UStc'                 *
 *                                                       *
 *          Website: http://abacus.ustc.edu.cn/          *
 *                                                       *
 *********************************************************
 Wed Apr 26 00:08:59 2023
 MAKE THE DIR         : OUT.oftest/
Notice: symbol 'al_locpsp' is not an element symbol!!!! set the covalent radius to be 0.
 UNIFORM GRID DIM     : 27 * 27 * 27
 UNIFORM GRID DIM(BIG): 27 * 27 * 27
func,idXC_GGA_X_PBE 101
func,idXC_GGA_C_PBE 130
 DONE(0.106996   SEC) : SETUP UNITCELL
 DONE(0.164875   SEC) : SYMMETRY
 DONE(0.16516    SEC) : INIT K-POINTS
 ---------------------------------------------------------
 Self-consistent calculations for electrons
 ---------------------------------------------------------
 SPIN    KPOINTS         PROCESSORS  
 1       1               1           
 ---------------------------------------------------------
 Use plane wave basis
 ---------------------------------------------------------
 ELEMENT NATOM       XC          
 Al      1           
 ---------------------------------------------------------
 Initial plane wave basis and FFT box
 ---------------------------------------------------------
 DONE(0.166299   SEC) : INIT BASIS
 DONE(0.166329   SEC) : INIT PHI
 DONE(0.192932   SEC) : LOCAL POTENTIAL
 DONE(0.192975   SEC) : NON-LOCAL POTENTIAL
 START CHARGE      : atomic
 DONE(0.2553     SEC) : INIT POTENTIAL
 DONE(0.255375   SEC) : INIT OPTIMIZATION
Default type: double
nnode = 10
nlayer = 3
feg_net_F = 0.540933
 DONE(0.331487   SEC) : INIT KEDF
======================== Running OFDFT ========================
Iter        Etot(Ha)          Theta      PotNorm     deltaE(Ha)
0     -1.966337094235e+00   2.000e-01   1.592e-01   -1.966e+00  
1     -1.992078351121e+00   8.633e-02   2.604e-01   -2.574e-02  
2     -1.999291944001e+00   4.865e-02   2.590e-01   -7.214e-03  
3     -2.083737112049e+00   1.002e-01   1.040e-01   -8.445e-02  
4     -2.086166697128e+00   1.046e-02   1.716e-02   -2.430e-03  
5     -2.086494226276e+00   1.057e-02   9.686e-03   -3.275e-04  
6     -2.086523227851e+00   1.807e-03   1.386e-03   -2.900e-05  
7     -2.086524212344e+00   4.865e-04   3.216e-04   -9.845e-07  
8     -2.086524262763e+00   6.784e-05   1.340e-04   -5.042e-08  
9     -2.086524279414e+00   7.901e-05   1.230e-05   -1.665e-08  

  |CLASS_NAME---------|NAME---------------|TIME(Sec)-----|CALLS----|AVG------|PER%-------
                       total               111.39         21        5.3       1e+02     %
   Driver              driver_line         111.38         1         1.1e+02   1e+02     %
   PW_Basis            recip2real          2.5337         4668      0.00054   2.3       %
   PW_Basis            gathers_scatterp    0.20404        4668      4.4e-05   0.18      %
   Potential           update_from_charge  4.0755         234       0.017     3.7       %
   Potential           cal_v_eff           4.0737         234       0.017     3.7       %
   H_Hartree_pw        v_hartree           0.30064        234       0.0013    0.27      %
   PW_Basis            real2recip          2.5377         4668      0.00054   2.3       %
   PW_Basis            gatherp_scatters    0.12796        4668      2.7e-05   0.11      %
   PotXC               cal_v_eff           3.7608         234       0.016     3.4       %
   XC_Functional       v_xc                55.255         117       0.47      50        %
   XC_Functional       v_xc_libxc          3.7536         234       0.016     3.4       %
   ESolver_OF          Run                 111.06         1         1.1e+02   1e+02     %
   KEDF_vW             vw_potential        0.29387        233       0.0013    0.26      %
 ----------------------------------------------------------------------------------------

 START  Time  : Wed Apr 26 00:08:59 2023
 FINISH Time  : Wed Apr 26 00:10:51 2023
 TOTAL  Time  : 1.1e+02
 SEE INFORMATION IN : OUT.oftest/
