 *********************************************************
 *                                                       *
 *                  WELCOME TO ABACUS v3.0               *
 *                                                       *
 *            'Atomic-orbital Based Ab-initio            *
 *                  Computation at UStc'                 *
 *                                                       *
 *          Website: http://abacus.ustc.edu.cn/          *
 *                                                       *
 *********************************************************
 Mon Apr 17 14:43:51 2023
 MAKE THE DIR         : OUT.blpstest/
Notice: symbol 'al_locpsp' is not an element symbol!!!! set the covalent radius to be 0.
 UNIFORM GRID DIM     : 27 * 27 * 27
 UNIFORM GRID DIM(BIG): 27 * 27 * 27
func,idXC_GGA_X_PBE 101
func,idXC_GGA_C_PBE 130
 DONE(0.111257   SEC) : SETUP UNITCELL
 DONE(0.169893   SEC) : SYMMETRY
 DONE(0.721087   SEC) : INIT K-POINTS
 ---------------------------------------------------------
 Self-consistent calculations for electrons
 ---------------------------------------------------------
 SPIN    KPOINTS         PROCESSORS  
 1       256             1           
 ---------------------------------------------------------
 Use plane wave basis
 ---------------------------------------------------------
 ELEMENT NATOM       XC          
 Al      1           
 ---------------------------------------------------------
 Initial plane wave basis and FFT box
 ---------------------------------------------------------
 DONE(0.722102   SEC) : INIT BASIS
 DONE(0.72213    SEC) : INIT PHI
 DONE(0.783244   SEC) : LOCAL POTENTIAL
 DONE(0.78328    SEC) : NON-LOCAL POTENTIAL
 START CHARGE      : atomic
 DONE(0.895334   SEC) : INIT POTENTIAL
 DONE(0.895402   SEC) : INIT OPTIMIZATION
 DONE(0.89642    SEC) : INIT KEDF
======================== Running OFDFT ========================
Iter        Etot(Ha)          Theta      PotNorm     deltaE(Ha)
0     -2.021700320065e+00   2.000e-01   1.995e-01   -2.022e+00  
1     -2.027727634477e+00   2.943e-02   2.490e-01   -6.027e-03  
2     -2.096012884108e+00   7.407e-02   1.428e-01   -6.829e-02  
3     -2.098707810516e+00   1.369e-02   1.347e-02   -2.695e-03  
4     -2.098748419337e+00   2.435e-03   1.351e-03   -4.061e-05  
5     -2.098748675918e+00   1.004e-04   7.934e-04   -2.566e-07  
6     -2.098748840924e+00   1.511e-04   8.347e-04   -1.650e-07  

  |CLASS_NAME---------|NAME---------------|TIME(Sec)-----|CALLS----|AVG------|PER%-------
                       total               14.679         21        0.7       1e+02     %
   Driver              driver_line         14.668         1         15        1e+02     %
   PW_Basis            recip2real          2.5599         1475      0.0017    17        %
   PW_Basis            gathers_scatterp    0.20085        1475      0.00014   1.4       %
   Potential           update_from_charge  8.2089         164       0.05      56        %
   Potential           cal_v_eff           8.2071         164       0.05      56        %
   H_Hartree_pw        v_hartree           0.80225        164       0.0049    5.5       %
   PW_Basis            real2recip          3.0471         1801      0.0017    21        %
   PW_Basis            gatherp_scatters    0.22802        1801      0.00013   1.6       %
   PotXC               cal_v_eff           7.3808         164       0.045     50        %
   XC_Functional       v_xc                7.0128         82        0.086     48        %
   XC_Functional       v_xc_libxc          7.3666         164       0.045     50        %
   ESolver_OF          Run                 13.781         1         14        94        %
   KEDF_TF             tf_potential        1.0211         163       0.0063    7         %
   KEDF_WT             wt_potential        3.7531         163       0.023     26        %
   KEDF_vW             vw_potential        0.60945        163       0.0037    4.2       %
 ----------------------------------------------------------------------------------------

 START  Time  : Mon Apr 17 14:43:51 2023
 FINISH Time  : Mon Apr 17 14:44:06 2023
 TOTAL  Time  : 15
 SEE INFORMATION IN : OUT.blpstest/
