 *********************************************************
 *                                                       *
 *                  WELCOME TO ABACUS v3.0               *
 *                                                       *
 *            'Atomic-orbital Based Ab-initio            *
 *                  Computation at UStc'                 *
 *                                                       *
 *          Website: http://abacus.ustc.edu.cn/          *
 *                                                       *
 *********************************************************
 Mon Apr 17 15:02:18 2023
 MAKE THE DIR         : OUT.blpstest/
Notice: symbol 'mg_locpsp' is not an element symbol!!!! set the covalent radius to be 0.
 UNIFORM GRID DIM     : 32 * 32 * 32
 UNIFORM GRID DIM(BIG): 32 * 32 * 32
func,idXC_GGA_X_PBE 101
func,idXC_GGA_C_PBE 130
 DONE(0.162108   SEC) : SETUP UNITCELL
 DONE(0.214047   SEC) : SYMMETRY
 DONE(0.565042   SEC) : INIT K-POINTS
 ---------------------------------------------------------
 Self-consistent calculations for electrons
 ---------------------------------------------------------
 SPIN    KPOINTS         PROCESSORS  
 1       256             1           
 ---------------------------------------------------------
 Use plane wave basis
 ---------------------------------------------------------
 ELEMENT NATOM       XC          
 Mg      1           
 ---------------------------------------------------------
 Initial plane wave basis and FFT box
 ---------------------------------------------------------
 DONE(0.566535   SEC) : INIT BASIS
 DONE(0.56656    SEC) : INIT PHI
 DONE(0.62618    SEC) : LOCAL POTENTIAL
 DONE(0.626217   SEC) : NON-LOCAL POTENTIAL
 START CHARGE      : atomic
 DONE(0.740209   SEC) : INIT POTENTIAL
 DONE(0.740295   SEC) : INIT OPTIMIZATION
 DONE(0.742194   SEC) : INIT KEDF
======================== Running OFDFT ========================
Iter        Etot(Ha)          Theta      PotNorm     deltaE(Ha)
0     -8.513667323366e-01   2.000e-01   9.422e-02   -8.514e-01  
1     -8.866470749826e-01   8.513e-02   4.660e-02   -3.528e-02  
2     -8.876683044367e-01   1.923e-02   3.638e-03   -1.021e-03  
3     -8.876728267921e-01   9.235e-04   9.038e-04   -4.522e-06  
4     -8.876731422312e-01   1.880e-04   5.679e-04   -3.154e-07  
5     -8.876734434291e-01   4.549e-04   3.743e-05   -3.012e-07  

  |CLASS_NAME---------|NAME---------------|TIME(Sec)-----|CALLS----|AVG------|PER%-------
                       total               17.848         21        0.85      1e+02     %
   Driver              driver_line         17.838         1         18        1e+02     %
   PW_Basis            setuptransform      0.13855        1         0.14      0.78      %
   PW_Basis            recip2real          2.3927         1358      0.0018    13        %
   PW_Basis            gathers_scatterp    0.41207        1358      0.0003    2.3       %
   Potential           update_from_charge  10.96          151       0.073     61        %
   Potential           cal_v_eff           10.957         151       0.073     61        %
   H_Hartree_pw        v_hartree           0.81959        151       0.0054    4.6       %
   PW_Basis            real2recip          3.2827         1658      0.002     18        %
   PW_Basis            gatherp_scatters    0.47975        1658      0.00029   2.7       %
   PotXC               cal_v_eff           10.058         151       0.067     56        %
   XC_Functional       v_xc                8.4897         76        0.11      48        %
   XC_Functional       v_xc_libxc          9.7924         151       0.065     55        %
   ESolver_OF          Run                 17.103         1         17        96        %
   KEDF_TF             tf_potential        1.0251         150       0.0068    5.7       %
   KEDF_WT             wt_potential        3.9361         150       0.026     22        %
   KEDF_vW             vw_potential        0.73718        150       0.0049    4.1       %
 ----------------------------------------------------------------------------------------

 START  Time  : Mon Apr 17 15:02:18 2023
 FINISH Time  : Mon Apr 17 15:02:36 2023
 TOTAL  Time  : 18
 SEE INFORMATION IN : OUT.blpstest/
