                                                                                     
                             WELCOME TO ABACUS                                       
                                                                                     
               'Atomic-orbital Based Ab-initio Computation at UStc'                  
                                                                                     
                     Website: http://abacus.ustc.edu.cn/                             
                                                                                     
    Version: Parallel, in development
    Processor Number is 1
    Start Time is Sat Mar 26 13:25:42 2022
                                                                                     
 ------------------------------------------------------------------------------------

 READING GENERAL INFORMATION
                           global_out_dir = OUT.stack/
                           global_in_card = INPUT
                               pseudo_dir = ./
                              orbital_dir = ./
                              pseudo_type = blps
                                    DRANK = 1
                                    DSIZE = 1
                                   DCOLOR = 1
                                    GRANK = 1
                                    GSIZE = 1




 >>>>>>>>>>>>>>>>>>>>>>>>>>>>>>>>>>>>>>>>>>>>>>>>>>>>>>>>>>>>>>>>>>>>>>
 |                                                                    |
 | Reading atom information in unitcell:                              |
 | From the input file and the structure file we know the number of   |
 | different elments in this unitcell, then we list the detail        |
 | information for each element, especially the zeta and polar atomic |
 | orbital number for each element. The total atom number is counted. |
 | We calculate the nearest atom distance for each atom and show the  |
 | Cartesian and Direct coordinates for each atom. We list the file   |
 | address for atomic orbitals. The volume and the lattice vectors    |
 | in real and reciprocal space is also shown.                        |
 |                                                                    |
 <<<<<<<<<<<<<<<<<<<<<<<<<<<<<<<<<<<<<<<<<<<<<<<<<<<<<<<<<<<<<<<<<<<<<<




 READING UNITCELL INFORMATION
                                    ntype = 1
                 atom label for species 1 = Al
                  lattice constant (Bohr) = 7.50241
              lattice constant (Angstrom) = 3.9701

 READING ATOM TYPE 1
                               atom label = Al
                      L=0, number of zeta = 1
                      L=1, number of zeta = 1
                      L=2, number of zeta = 1
             number of atom for this type = 22
                      start magnetization = FALSE
                      start magnetization = FALSE
                      start magnetization = FALSE
                      start magnetization = FALSE
                      start magnetization = FALSE
                      start magnetization = FALSE
                      start magnetization = FALSE
                      start magnetization = FALSE
                      start magnetization = FALSE
                      start magnetization = FALSE
                      start magnetization = FALSE
                      start magnetization = FALSE
                      start magnetization = FALSE
                      start magnetization = FALSE
                      start magnetization = FALSE
                      start magnetization = FALSE
                      start magnetization = FALSE
                      start magnetization = FALSE
                      start magnetization = FALSE
                      start magnetization = FALSE
                      start magnetization = FALSE
                      start magnetization = FALSE

                        TOTAL ATOM NUMBER = 22

 DIRECT COORDINATES
         atom                   x                   y                   z                 mag                  vx                  vy                  vz
     taud_Al1                   0                   0                   0                   0                   0                   0                   0
     taud_Al2            0.333333            0.333333           0.0454545                   0                   0                   0                   0
     taud_Al3            0.666667            0.666667           0.0909091                   0                   0                   0                   0
     taud_Al4                   0                   0            0.136364                   0                   0                   0                   0
     taud_Al5            0.333333            0.333333            0.181818                   0                   0                   0                   0
     taud_Al6                   0                   0            0.227273                   0                   0                   0                   0
     taud_Al7            0.366667            0.366667            0.272727                   0                   0                   0                   0
     taud_Al8                 0.7                 0.7            0.318182                   0                   0                   0                   0
     taud_Al9           0.0333333           0.0333333            0.363636                   0                   0                   0                   0
    taud_Al10            0.366667            0.366667            0.409091                   0                   0                   0                   0
    taud_Al11                 0.7                 0.7            0.454545                   0                   0                   0                   0
    taud_Al12            0.366667            0.366667                 0.5                   0                   0                   0                   0
    taud_Al13           0.0333333           0.0333333            0.545455                   0                   0                   0                   0
    taud_Al14                 0.7                 0.7            0.590909                   0                   0                   0                   0
    taud_Al15            0.366667            0.366667            0.636364                   0                   0                   0                   0
    taud_Al16                   0                   0            0.681818                   0                   0                   0                   0
    taud_Al17            0.333333            0.333333            0.727273                   0                   0                   0                   0
    taud_Al18                   0                   0            0.772727                   0                   0                   0                   0
    taud_Al19            0.666667            0.666667            0.818182                   0                   0                   0                   0
    taud_Al20            0.333333            0.333333            0.863636                   0                   0                   0                   0
    taud_Al21                   0                   0            0.909091                   0                   0                   0                   0
    taud_Al22            0.666667            0.666667            0.954545                   0                   0                   0                   0


                          Volume (Bohr^3) = 2322.55
                             Volume (A^3) = 344.166

 Lattice vectors: (Cartesian coordinate: in unit of a_0)
            +0.707107                  +0                  +0
            +0.353553           +0.612372                  +0
                   +0                  +0            +12.7017
 Reciprocal vectors: (Cartesian coordinate: in unit of 2 pi/a_0)
             +1.41421           -0.816497                  +0
                   -0            +1.63299                  -0
                   +0                  -0          +0.0787296




 >>>>>>>>>>>>>>>>>>>>>>>>>>>>>>>>>>>>>>>>>>>>>>>>>>>>>>>>>>>>>>>>>>>>>>
 |                                                                    |
 | Reading pseudopotentials files:                                    |
 | The pseudopotential file is in UPF format. The 'NC' indicates that |
 | the type of pseudopotential is 'norm conserving'. Functional of    |
 | exchange and correlation is decided by 4 given parameters in UPF   |
 | file.  We also read in the 'core correction' if there exists.      |
 | Also we can read the valence electrons number and the maximal      |
 | angular momentum used in this pseudopotential. We also read in the |
 | trail wave function, trail atomic density and local-pseudopotential|
 | on logrithmic grid. The non-local pseudopotential projector is also|
 | read in if there is any.                                           |
 |                                                                    |
 <<<<<<<<<<<<<<<<<<<<<<<<<<<<<<<<<<<<<<<<<<<<<<<<<<<<<<<<<<<<<<<<<<<<<<




                PAO radial cut off (Bohr) = 16

 Read in pseudopotential file is al.lda.lps
                     pseudopotential type = 
                            functional Ex = LDA
                            functional Ec = LDA
                          functional GCEx = NOGX
                          functional GCEc = NOGC
                 nonlocal core correction = 0
                        valence electrons = 3
                                     lmax = 0
                           number of zeta = 0
                     number of projectors = 0
     initial pseudo atomic orbital number = 0
                                   NLOCAL = 198

 SETUP THE ELECTRONS NUMBER
            electron number of element Al = 3
      total electron number of element Al = 66
                           occupied bands = 33
                                   NBANDS = 45
 DONE : SETUP UNITCELL Time : 0.0140189 (SEC)





 >>>>>>>>>>>>>>>>>>>>>>>>>>>>>>>>>>>>>>>>>>>>>>>>>>>>>>>>>>>>>>>>>>>>>>
 |                                                                    |
 | Doing symmetry analysis:                                           |
 | We calculate the norm of 3 vectors and the angles between them,    |
 | the type of Bravais lattice is given. We can judge if the unticell |
 | is a primitive cell. Finally we give the point group operation for |
 | this unitcell. We we use the point group operations to do symmetry |
 | analysis on given k-point mesh and the charge density.             |
 |                                                                    |
 <<<<<<<<<<<<<<<<<<<<<<<<<<<<<<<<<<<<<<<<<<<<<<<<<<<<<<<<<<<<<<<<<<<<<<




 LATTICE VECTORS: (CARTESIAN COORDINATE: IN UNIT OF A0)
            +0.707107                  +0                  +0
            +0.353553           +0.612372                  +0
                   +0                  +0            +12.7017
                       right hand lattice = 1
                                   NORM_A = 0.707107
                                   NORM_B = 0.707107
                                   NORM_C = 12.7017
                           ALPHA (DEGREE) = 60
                           BETA  (DEGREE) = 90
                           GAMMA (DEGREE) = 90
                             BRAVAIS TYPE = 4
                     BRAVAIS LATTICE NAME = 04. Hexagonal cell
 STANDARD LATTICE VECTORS: (CARTESIAN COORDINATE: IN UNIT OF A0)
            +0.707107                  +0                  +0
            +0.353553           +0.612372                  +0
                   +0                  +0            +12.7017
                                    IBRAV = 4
                                  BRAVAIS = HEXAGONAL CELL
                       LATTICE CONSTANT A = 38.1903
                                C/A RATIO = 0.666981
                                    ibrav = 4
                        ROTATION MATRICES = 24
              PURE POINT GROUP OPERATIONS = 2
                   SPACE GROUP OPERATIONS = 2
                                       C2 = 0
                                       C3 = 0
                                       C4 = 0
                                       C6 = 0
                                       S1 = 1
                                       S3 = 0
                                       S4 = 0
                                       S6 = 0
                              POINT GROUP = C_1h
 DONE : SYMMETRY Time : 0.0685446 (SEC)





 >>>>>>>>>>>>>>>>>>>>>>>>>>>>>>>>>>>>>>>>>>>>>>>>>>>>>>>>>>>>>>>>>>>>>>
 |                                                                    |
 | Setup K-points                                                     |
 | We setup the k-points according to input parameters.               |
 | The reduced k-points are set according to symmetry operations.     |
 | We treat the spin as another set of k-points.                      |
 |                                                                    |
 <<<<<<<<<<<<<<<<<<<<<<<<<<<<<<<<<<<<<<<<<<<<<<<<<<<<<<<<<<<<<<<<<<<<<<





 SETUP K-POINTS
                                    nspin = 1
                   Input type of k points = Monkhorst-Pack(Gamma)
                                   nkstot = 100
                               nkstot_ibz = 31
      IBZ             DirectX             DirectY             DirectZ              Weight    ibz2bz
        1                   0                   0                 0.5                0.01         0
        2                   0                 0.9                 0.5                0.04         1
        3                 0.8                   0                 0.5                0.04         2
        4                   0                 0.7                 0.5                0.04         3
        5                 0.6                   0                 0.5                0.04         4
        6                   0                 0.5                 0.5                0.02         5
        7                 0.9                 0.9                 0.5                0.02        11
        8                 0.9                 0.8                 0.5                0.04        12
        9                 0.9                 0.7                 0.5                0.04        13
       10                 0.9                 0.6                 0.5                0.04        14
       11                 0.9                 0.5                 0.5                0.04        15
       12                 0.9                 0.4                 0.5                0.04        16
       13                 0.9                 0.3                 0.5                0.04        17
       14                 0.9                 0.2                 0.5                0.04        18
       15                 0.9                 0.1                 0.5                0.02        19
       16                 0.8                 0.8                 0.5                0.02        22
       17                 0.8                 0.7                 0.5                0.04        23
       18                 0.8                 0.6                 0.5                0.04        24
       19                 0.8                 0.5                 0.5                0.04        25
       20                 0.8                 0.4                 0.5                0.04        26
       21                 0.8                 0.3                 0.5                0.04        27
       22                 0.2                 0.8                 0.5                0.02        28
       23                 0.7                 0.7                 0.5                0.02        33
       24                 0.7                 0.6                 0.5                0.04        34
       25                 0.7                 0.5                 0.5                0.04        35
       26                 0.7                 0.4                 0.5                0.04        36
       27                 0.7                 0.3                 0.5                0.02        37
       28                 0.6                 0.6                 0.5                0.02        44
       29                 0.6                 0.5                 0.5                0.04        45
       30                 0.4                 0.6                 0.5                0.02        46
       31                 0.5                 0.5                 0.5                0.01        55
                               nkstot now = 31

  KPOINTS            DIRECT_X            DIRECT_Y            DIRECT_Z              WEIGHT
        1                   0                   0                 0.5                0.01
        2                   0                 0.9                 0.5                0.04
        3                 0.8                   0                 0.5                0.04
        4                   0                 0.7                 0.5                0.04
        5                 0.6                   0                 0.5                0.04
        6                   0                 0.5                 0.5                0.02
        7                 0.9                 0.9                 0.5                0.02
        8                 0.9                 0.8                 0.5                0.04
        9                 0.9                 0.7                 0.5                0.04
       10                 0.9                 0.6                 0.5                0.04
       11                 0.9                 0.5                 0.5                0.04
       12                 0.9                 0.4                 0.5                0.04
       13                 0.9                 0.3                 0.5                0.04
       14                 0.9                 0.2                 0.5                0.04
       15                 0.9                 0.1                 0.5                0.02
       16                 0.8                 0.8                 0.5                0.02
       17                 0.8                 0.7                 0.5                0.04
       18                 0.8                 0.6                 0.5                0.04
       19                 0.8                 0.5                 0.5                0.04
       20                 0.8                 0.4                 0.5                0.04
       21                 0.8                 0.3                 0.5                0.04
       22                 0.2                 0.8                 0.5                0.02
       23                 0.7                 0.7                 0.5                0.02
       24                 0.7                 0.6                 0.5                0.04
       25                 0.7                 0.5                 0.5                0.04
       26                 0.7                 0.4                 0.5                0.04
       27                 0.7                 0.3                 0.5                0.02
       28                 0.6                 0.6                 0.5                0.02
       29                 0.6                 0.5                 0.5                0.04
       30                 0.4                 0.6                 0.5                0.02
       31                 0.5                 0.5                 0.5                0.01

           k-point number in this process = 31
       minimum distributed K point number = 31

  KPOINTS         CARTESIAN_X         CARTESIAN_Y         CARTESIAN_Z              WEIGHT
        1                   0                   0           0.0393648                0.02
        2                   0             1.46969           0.0393648                0.08
        3             1.13137           -0.653197           0.0393648                0.08
        4                   0              1.1431           0.0393648                0.08
        5            0.848528           -0.489898           0.0393648                0.08
        6                   0            0.816497           0.0393648                0.04
        7             1.27279            0.734847           0.0393648                0.04
        8             1.27279            0.571548           0.0393648                0.08
        9             1.27279            0.408248           0.0393648                0.08
       10             1.27279            0.244949           0.0393648                0.08
       11             1.27279           0.0816497           0.0393648                0.08
       12             1.27279          -0.0816497           0.0393648                0.08
       13             1.27279           -0.244949           0.0393648                0.08
       14             1.27279           -0.408248           0.0393648                0.08
       15             1.27279           -0.571548           0.0393648                0.04
       16             1.13137            0.653197           0.0393648                0.04
       17             1.13137            0.489898           0.0393648                0.08
       18             1.13137            0.326599           0.0393648                0.08
       19             1.13137            0.163299           0.0393648                0.08
       20             1.13137                   0           0.0393648                0.08
       21             1.13137           -0.163299           0.0393648                0.08
       22            0.282843              1.1431           0.0393648                0.04
       23            0.989949            0.571548           0.0393648                0.04
       24            0.989949            0.408248           0.0393648                0.08
       25            0.989949            0.244949           0.0393648                0.08
       26            0.989949           0.0816497           0.0393648                0.08
       27            0.989949          -0.0816497           0.0393648                0.04
       28            0.848528            0.489898           0.0393648                0.04
       29            0.848528            0.326599           0.0393648                0.08
       30            0.565685            0.653197           0.0393648                0.04
       31            0.707107            0.408248           0.0393648                0.02

  KPOINTS            DIRECT_X            DIRECT_Y            DIRECT_Z              WEIGHT
        1                   0                   0                 0.5                0.02
        2                   0                 0.9                 0.5                0.08
        3                 0.8                   0                 0.5                0.08
        4                   0                 0.7                 0.5                0.08
        5                 0.6                   0                 0.5                0.08
        6                   0                 0.5                 0.5                0.04
        7                 0.9                 0.9                 0.5                0.04
        8                 0.9                 0.8                 0.5                0.08
        9                 0.9                 0.7                 0.5                0.08
       10                 0.9                 0.6                 0.5                0.08
       11                 0.9                 0.5                 0.5                0.08
       12                 0.9                 0.4                 0.5                0.08
       13                 0.9                 0.3                 0.5                0.08
       14                 0.9                 0.2                 0.5                0.08
       15                 0.9                 0.1                 0.5                0.04
       16                 0.8                 0.8                 0.5                0.04
       17                 0.8                 0.7                 0.5                0.08
       18                 0.8                 0.6                 0.5                0.08
       19                 0.8                 0.5                 0.5                0.08
       20                 0.8                 0.4                 0.5                0.08
       21                 0.8                 0.3                 0.5                0.08
       22                 0.2                 0.8                 0.5                0.04
       23                 0.7                 0.7                 0.5                0.04
       24                 0.7                 0.6                 0.5                0.08
       25                 0.7                 0.5                 0.5                0.08
       26                 0.7                 0.4                 0.5                0.08
       27                 0.7                 0.3                 0.5                0.04
       28                 0.6                 0.6                 0.5                0.04
       29                 0.6                 0.5                 0.5                0.08
       30                 0.4                 0.6                 0.5                0.04
       31                 0.5                 0.5                 0.5                0.02
 DONE : INIT K-POINTS Time : 0.0694566 (SEC)





 >>>>>>>>>>>>>>>>>>>>>>>>>>>>>>>>>>>>>>>>>>>>>>>>>>>>>>>>>>>>>>>>>>>>>>
 |                                                                    |
 | Setup plane waves:                                                 |
 | Use the energy cutoff and the lattice vectors to generate the      |
 | dimensions of FFT grid. The number of FFT grid on each processor   |
 | is 'nrxx'. The number of plane wave basis in reciprocal space is   |
 | different for charege/potential and wave functions. We also set    |
 | the 'sticks' for the parallel of FFT.                              |
 |                                                                    |
 <<<<<<<<<<<<<<<<<<<<<<<<<<<<<<<<<<<<<<<<<<<<<<<<<<<<<<<<<<<<<<<<<<<<<<





 SETUP THE PLANE WAVE BASIS
     energy cutoff for wavefunc (unit:Ry) = 40
            [fft grid for wave functions] = 24, 24, 384
          [fft grid for charge/potential] = 24, 24, 384
                      [fft grid division] = 1, 1, 1
      [big fft grid for charge/potential] = 24, 24, 384
                                     nbxx = 221184
                                     nrxx = 221184

 SETUP PLANE WAVES FOR CHARGE/POTENTIAL
                    number of plane waves = 79703
                         number of sticks = 313

 SETUP PLANE WAVES FOR WAVE FUNCTIONS
                    number of plane waves = 16897
                         number of sticks = 109

 PARALLEL PW FOR CHARGE/POTENTIAL
     PROC   COLUMNS(POT)             PW
        1            313          79703
 --------------- sum -------------------
        1            313          79703

 PARALLEL PW FOR WAVE FUNCTIONS
     PROC     COLUMNS(W)             PW
        1            109          16897
 --------------- sum -------------------
        1            109          16897

 SETUP COORDINATES OF PLANE WAVES
              number of total plane waves = 79703

 SETUP COORDINATES OF PLANE WAVES
                            number of |g| = 4208
                                  max |g| = 228.078
                                  min |g| = 0
 DONE : INIT PLANEWAVE Time : 0.416549 (SEC)

                                     npwx = 10056

 SETUP NONLOCAL PSEUDOPOTENTIALS IN PLANE WAVE BASIS
 Al non-local projectors:
      TOTAL NUMBER OF NONLOCAL PROJECTORS = 0

 nhm = 0, not allocate some matrix. DONE : LOCAL POTENTIAL Time : 1.07809 (SEC)


 Init Non-Local PseudoPotential table : 
 Init Non-Local-Pseudopotential done.
 DONE : NON-LOCAL POTENTIAL Time : 1.07813 (SEC)

                                start_pot = atomic
 DONE : INIT POTENTIAL Time : 1.5599 (SEC)


 Make real space PAO into reciprocal space.
       max mesh points in Pseudopotential = 1601
     dq(describe PAO in reciprocal space) = 0.01
                                    max q = 764

 number of pseudo atomic orbitals for Al is 0
 DONE : INIT BASIS Time : 81.4921 (SEC)


 -------------------------------------------
 RELAX CELL : 1
 RELAX IONS : 1 (in total: 1)
 -------------------------------------------

 PW ALGORITHM --------------- ION=   1  ELEC=   1--------------------------------
  K-point    CG iter num      Time(Sec)
        1       7.977778      27.322148
        2       8.022222      18.925908
        3       8.000000      22.783287
        4       8.444444      26.409896
        5       8.555556      30.532320
        6       8.066667      23.584119
        7       8.044444      24.593847
        8       8.111111      20.384193
        9       8.244444      33.085289
       10       8.288889      29.218562
       11       8.333333      20.858880
       12       8.288889      26.248499
       13       8.533333      24.906803
       14       8.466667      21.486705
       15       7.933333      26.120488
       16       8.222222      23.854519
       17       8.333333      33.215356
       18       7.933333      26.242707
       19       8.288889      28.090447
       20       7.866667      28.637998
       21       8.244444      19.688465
       22       8.266667      27.705779
       23       8.244444      32.360710
       24       8.422222      23.187466
       25       8.288889      27.959977
       26       8.000000      24.241092
       27       8.000000      30.915018
       28       8.266667      28.067599
       29       8.133333      27.199791
       30       8.066667      18.281348
       31       8.044444      28.024872

 Density error is 1.886091548108
                          Error Threshold = 0.010000000000

       Energy                       Rydberg                            eV
   E_KohnSham              -93.563292368622            -1272.993899853182
     E_Harris              -93.690038818187            -1274.718373768531
      E_Fermi               +0.622078692814               +8.463814826663

 PW ALGORITHM --------------- ION=   1  ELEC=   2--------------------------------
  K-point    CG iter num      Time(Sec)
        1       2.733333      12.485599
        2       2.511111      11.180596
        3       2.422222       8.041789
        4       2.244444       8.710145
        5       2.177778      11.314656
        6       2.222222      10.464411
        7       2.577778      11.230003
        8       3.155556      11.652755
        9       2.511111       7.470097
       10       2.333333       7.941761
       11       2.266667      10.524277
       12       2.222222       8.035020
       13       2.266667       6.099539
       14       2.711111       9.017557
       15       3.155556      14.053817
       16       2.333333       6.601820
       17       2.511111       8.396273
       18       3.088889      12.905081
       19       2.800000      10.539811
       20       2.555556       8.780181
       21       2.800000       9.360157
       22       2.622222       8.878937
       23       2.244444       6.775695
       24       2.422222       7.572218
       25       2.977778      11.165081
       26       2.555556      11.016717
       27       2.533333      12.756873
       28       2.311111      10.296319
       29       2.222222      11.490390
       30       2.755556      10.938095
       31       2.311111       9.768063

 Density error is 14.118169569336
                          Error Threshold = 0.002857714467

       Energy                       Rydberg                            eV
   E_KohnSham              -81.967531405463            -1115.225478108242
     E_Harris              -93.826630722207            -1276.576801963875
      E_Fermi               +0.615721192321               +8.377316594921

 PW ALGORITHM --------------- ION=   1  ELEC=   3--------------------------------
  K-point    CG iter num      Time(Sec)
        1      29.933333      91.547241
        2      29.600000      99.954006
        3      29.244444      91.425296
        4      28.133333      82.101638
        5      28.333333      79.140343
        6      27.866667      72.652881
        7      30.488889      94.872689
        8      28.000000      78.442593
        9      28.666667      79.652467
       10      27.266667      80.502015
       11      28.088889      95.288736
       12      26.911111      79.971528
       13      28.355556      93.437529
       14      27.644444      78.020317
       15      27.511111      83.333659
       16      29.644444     100.555734
       17      27.244444      70.963155
       18      27.355556      78.356791
       19      27.177778      81.883076
       20      27.800000      85.154636
       21      28.911111      83.565427
       22      26.866667      93.456793
       23      27.266667      77.516162
       24      27.866667      80.107645
       25      28.822222      74.413059
       26      26.177778      72.688228
       27      27.400000      72.766198
       28      29.111111      74.809015
       29      27.088889      87.231279
       30      28.400000      87.143000
       31      28.466667     100.480501

 Density error is 12282.257025629038
                          Error Threshold = 0.002857714467

       Energy                       Rydberg                            eV
   E_KohnSham             -267.206309001532            -3635.528343969519
     E_Harris             -545.948933388281            -7428.016311103072
      E_Fermi               -5.484639941759              -74.622354686314

 PW ALGORITHM --------------- ION=   1  ELEC=   4--------------------------------
  K-point    CG iter num      Time(Sec)
        1      18.577778      64.216015
        2      19.088889      66.671257
        3      17.911111      51.661049
        4      16.711111      44.266495
        5      15.800000      48.067381
        6      16.133333      38.963226
        7      18.933333      53.816326
        8      18.466667      67.660814
        9      17.977778      55.539058
       10      16.644444      44.322852
       11      16.177778      47.900518
       12      17.155556      44.358181
       13      16.222222      57.000115
       14      18.622222      54.777697
       15      17.733333      50.156946
       16      16.711111      52.357525
       17      19.111111      59.734829
       18      16.555556      55.594847
       19      17.000000      53.561148
       20      15.800000      49.445668
       21      16.266667      53.479130
       22      15.955556      39.139752
       23      16.888889      49.338382
       24      16.933333      43.951359
       25      17.511111      58.223716
       26      14.688889      46.290012
       27      14.844444      39.689089
       28      15.844444      46.388647
       29      16.466667      50.295116
       30      16.022222      47.891545
       31      15.644444      48.348383

 Density error is 7794.750409715667
                          Error Threshold = 0.002857714467

       Energy                       Rydberg                            eV
   E_KohnSham             -155.789034921308            -2119.618560850776
     E_Harris             -295.048433367247            -4014.339879767881
      E_Fermi               -2.065845218890              -28.107266162957

 PW ALGORITHM --------------- ION=   1  ELEC=   5--------------------------------
  K-point    CG iter num      Time(Sec)
        1      13.666667      31.813677
        2      13.955556      41.332020
        3      13.377778      47.603011
        4      12.755556      45.462241
        5      13.288889      52.283771
        6      11.933333      38.158782
        7      14.155556      33.853349
        8      14.266667      40.654219
        9      13.488889      49.728175
       10      12.911111      40.598816
       11      12.822222      43.146676
       12      12.933333      36.229265
       13      12.688889      37.393149
       14      13.955556      51.942637
       15      14.377778      43.030224
       16      13.333333      39.127779
       17      13.666667      32.178717
       18      12.444444      38.070373
       19      12.688889      35.893249
       20      12.066667      36.503842
       21      12.844444      38.413360
       22      12.155556      36.877281
       23      13.133333      40.233229
       24      12.933333      35.258145
       25      12.422222      30.362024
       26       9.511111      30.430654
       27       9.644444      24.986854
       28      13.355556      43.216720
       29      12.800000      47.545790
       30      12.222222      42.071431
       31      11.822222      41.832443

 Density error is 4558.008700609784
                          Error Threshold = 0.002857714467

       Energy                       Rydberg                            eV
   E_KohnSham             -120.595210903938            -1640.782019805283
     E_Harris             -167.024075977333            -2272.479136476642
      E_Fermi               -0.290035413295               -3.946134242602

 PW ALGORITHM --------------- ION=   1  ELEC=   6--------------------------------
  K-point    CG iter num      Time(Sec)
        1      10.622222      35.422111
        2       9.977778      30.883965
        3       9.755556      38.266227
        4       9.066667      25.218882
        5       8.911111      26.212063
        6       9.066667      27.994279
        7      10.222222      28.915504
        8       9.688889      25.914815
        9       8.688889      30.703175
       10       8.933333      29.341368
       11       8.822222      35.619326
       12       9.088889      32.093951
       13       8.888889      32.509485
       14       8.711111      24.746506
       15      10.088889      27.561470
       16       9.444444      28.991029
       17       8.622222      21.267222
       18       8.111111      26.192222
       19       8.155556      25.896201
       20       8.222222      33.431107
       21       7.933333      29.437642
       22       7.777778      25.210411
       23       9.511111      27.697512
       24       9.066667      23.688827
       25       8.466667      27.532154
       26       7.755556      21.292325
       27       8.111111      27.197002
       28       9.333333      31.679093
       29       8.533333      27.451847
       30       8.000000      27.417554
       31       9.155556      27.895802

 Density error is 3504.208758701540
                          Error Threshold = 0.002857714467

       Energy                       Rydberg                            eV
   E_KohnSham             -109.956277052658            -1496.031898782791
     E_Harris             -126.274000496601            -1718.045916008600
      E_Fermi               +0.262845383210               +3.576194904646

 PW ALGORITHM --------------- ION=   1  ELEC=   7--------------------------------
  K-point    CG iter num      Time(Sec)
        1       9.288889      22.222078
        2       9.355556      36.483050
        3       9.266667      24.158404
        4       9.822222      30.964032
        5       9.933333      31.439378
        6       9.844444      23.813945
        7       8.977778      29.004703
        8       9.244444      33.468284
        9       9.511111      37.464483
       10       9.800000      29.192784
       11       9.400000      25.192296
       12       9.177778      23.408234
       13       9.911111      30.397310
       14       9.688889      28.103045
       15       9.200000      35.362927
       16       9.955556      32.670690
       17       9.600000      28.539777
       18       9.600000      31.046170
       19       9.688889      38.660733
       20      10.377778      28.543488
       21       9.822222      39.306932
       22       9.755556      32.679275
       23       9.511111      24.226268
       24       9.466667      34.519766
       25       9.466667      26.992453
       26       9.733333      29.479523
       27       9.088889      26.211038
       28       9.933333      28.346965
       29       9.444444      30.431082
       30       9.466667      26.690186
       31       9.955556      33.126790

 Density error is 3589.696300551262
                          Error Threshold = 0.002857714467

       Energy                       Rydberg                            eV
   E_KohnSham              -99.955696402217            -1359.967018628249
     E_Harris             -119.303010571652            -1623.200732328698
      E_Fermi               +0.368616204818               +5.015280760667

 PW ALGORITHM --------------- ION=   1  ELEC=   8--------------------------------
  K-point    CG iter num      Time(Sec)
        1       9.022222      28.589652
        2       8.755556      26.229270
        3       9.866667      31.064475
        4       9.155556      30.863189
        5       8.688889      32.466482
        6       8.177778      29.503868
        7       8.888889      26.560716
        8       9.177778      31.855333
        9       9.266667      27.988222
       10       9.066667      26.710298
       11       8.511111      19.494237
       12       8.577778      33.181515
       13       8.822222      21.207097
       14       9.377778      26.541284
       15       9.466667      27.804513
       16       9.466667      37.194321
       17       8.955556      32.197750
       18       8.355556      25.029119
       19       8.422222      25.959180
       20       7.800000      34.481974
       21       8.111111      31.819559
       22       7.733333      28.564859
       23       8.822222      25.956019
       24       8.933333      37.804641
       25       8.177778      28.702577
       26       8.355556      25.610903
       27       7.600000      18.210285
       28       8.733333      29.713015
       29       8.488889      20.491822
       30       7.933333      25.307166
       31       8.244444      24.687904

 Density error is 2582.073344357792
                          Error Threshold = 0.002857714467

       Energy                       Rydberg                            eV
   E_KohnSham             -101.445808206949            -1380.241029829665
     E_Harris             -108.670954721014            -1478.544191305791
      E_Fermi               +0.482527556647               +6.565124212420

 PW ALGORITHM --------------- ION=   1  ELEC=   9--------------------------------
  K-point    CG iter num      Time(Sec)
        1       4.955556      17.981325
        2       4.644444      20.518438
        3       5.666667      18.529580
        4       5.488889      15.004926
        5       5.400000      20.223210
        6       5.844444      22.002292
        7       4.666667      13.050593
        8       4.822222      16.933337
        9       5.222222      17.495812
       10       5.622222      20.651982
       11       5.244444      21.641938
       12       5.377778      13.039402
       13       5.355556      21.255132
       14       4.977778      13.028998
       15       5.466667      13.376847
       16       5.688889      19.560657
       17       5.355556      14.191133
       18       4.888889      12.063390
       19       5.711111      23.144217
       20       5.088889      12.302639
       21       5.688889      17.428012
       22       5.355556      22.148723
       23       5.000000      21.459905
       24       5.422222      20.149634
       25       5.222222      13.085400
       26       5.400000      19.695529
       27       5.466667      18.627329
       28       5.533333      15.783390
       29       5.444444      18.363784
       30       5.266667      14.746097
       31       5.666667      25.000776

 Density error is 2380.088659036697
                          Error Threshold = 0.002857714467

       Energy                       Rydberg                            eV
   E_KohnSham              +75.563041535320            +1028.087923091015
     E_Harris             -103.970968873131            -1414.597603255216
      E_Fermi               +0.542234129762               +7.377473814841

 PW ALGORITHM --------------- ION=   1  ELEC=  10--------------------------------
  K-point    CG iter num      Time(Sec)
        1      29.555556      83.417590
        2      29.911111      77.104239
        3      29.444444      86.959896
        4      28.333333      90.830947
        5      28.911111      95.751908
        6      25.755556      76.569945
        7      29.466667      98.273886
        8      27.955556      79.345019
        9      27.977778      76.228387
       10      25.911111      79.118428
       11      27.622222      77.293838
       12      27.622222      78.381962
       13      26.044444      79.030750
       14      28.466667      91.060188
       15      28.177778      71.897093
       16      29.111111      97.685121
       17      28.133333      76.347289
       18      27.222222      78.644967
       19      27.311111      85.571189
       20      26.422222      78.001904
       21      27.111111      78.325540
       22      27.511111      72.247338
       23      28.755556      82.047872
       24      26.222222      72.278287
       25      27.777778      74.026632
       26      26.422222      77.198829
       27      27.200000      92.126158
       28      28.711111      85.085929
       29      28.111111      94.181953
       30      26.155556      66.654935
       31      25.511111      67.736901

 Density error is 12906.678693536514
                          Error Threshold = 0.002857714467

       Energy                       Rydberg                            eV
   E_KohnSham             -232.611853386707            -3164.846628399808
     E_Harris             -448.900379004257            -6107.602988817463
      E_Fermi               -3.972399825191              -54.047272356798

 PW ALGORITHM --------------- ION=   1  ELEC=  11--------------------------------
  K-point    CG iter num      Time(Sec)
        1       8.133333      27.690653
        2      11.355556      34.841731
        3      11.222222      33.670386
        4      10.444444      33.470561
        5       9.644444      34.759834
        6       8.933333      29.048920
        7      11.400000      31.839135
        8      12.044444      41.514123
        9      11.133333      37.129042
       10      11.044444      25.723874
       11      10.911111      34.160781
       12      11.244444      37.793744
       13      10.600000      24.018892
       14      10.511111      35.053600
       15      12.200000      41.530127
       16      11.200000      34.993345
       17      12.022222      32.528802
       18      10.577778      23.943118
       19      10.111111      30.444886
       20      10.666667      29.412251
       21      10.466667      37.638589
       22      10.822222      29.999496
       23      10.066667      31.589813
       24      10.844444      36.370328
       25      10.355556      38.837837
       26      10.333333      36.047558
       27      10.066667      27.099163
       28      10.022222      33.239853
       29      10.444444      26.494320
       30      10.155556      27.698114
       31       8.622222      38.478491

 Density error is 10511.746397818313
                          Error Threshold = 0.002857714467

       Energy                       Rydberg                            eV
   E_KohnSham             -147.735452246993            -2010.043947166007
     E_Harris             -244.667267288082            -3328.868949206919
      E_Fermi               -1.154234762589              -15.704169600887

 PW ALGORITHM --------------- ION=   1  ELEC=  12--------------------------------
  K-point    CG iter num      Time(Sec)
        1       7.266667      26.747396
        2       9.155556      30.924523
        3       8.822222      32.882833
        4       7.422222      27.262095
        5       6.377778      25.596062
        6       5.133333      12.502136
        7       8.733333      24.734805
        8       8.911111      31.648347
        9       8.444444      24.361174
       10       8.088889      24.602062
       11       6.133333      15.138218
       12       6.000000      23.163065
       13       7.711111      26.899745
       14       8.266667      25.041308
       15       9.422222      35.259293
       16       8.466667      30.705141
       17       8.355556      29.389298
       18       8.000000      22.842336
       19       6.955556      24.568059
       20       6.488889      17.581877
       21       7.177778      21.728434
       22       7.822222      30.312138
       23       7.533333      22.966012
       24       7.600000      27.485703
       25       6.888889      18.143812
       26       6.955556      19.166353
       27       6.955556      22.987137
       28       6.088889      26.547620
       29       6.511111      20.701273
       30       6.866667      27.136707
       31       5.244444      17.352739

 Density error is 8478.042726095307
                          Error Threshold = 0.002857714467

       Energy                       Rydberg                            eV
   E_KohnSham              -93.396025291744            -1270.718114519837
     E_Harris             -152.772212230684            -2078.572582402588
      E_Fermi               +0.083332276421               +1.133793786640

 PW ALGORITHM --------------- ION=   1  ELEC=  13--------------------------------
  K-point    CG iter num      Time(Sec)
        1      11.200000      37.394808
        2      11.822222      41.954476
        3      11.777778      32.458429
        4      11.000000      42.913797
        5      10.244444      32.965530
        6      10.622222      32.358960
        7      12.422222      37.171656
        8      11.888889      36.712600
        9      11.733333      39.871860
       10      11.044444      43.351941
       11      10.688889      28.913325
       12      10.577778      34.884885
       13      11.133333      28.030912
       14      11.866667      33.645429
       15      12.022222      47.989419
       16      12.177778      39.689411
       17      11.933333      39.250826
       18      10.533333      35.774809
       19       9.311111      28.991192
       20       9.000000      23.914391
       21       9.200000      27.744210
       22      10.177778      31.750114
       23      11.244444      31.799361
       24      10.955556      41.393213
       25       9.355556      25.274564
       26       8.044444      29.982683
       27       8.044444      23.039689
       28      10.688889      33.000559
       29      10.466667      30.157525
       30       9.044444      29.611394
       31      10.244444      34.657958

 Density error is 3242.650239796186
                          Error Threshold = 0.002857714467

       Energy                       Rydberg                            eV
   E_KohnSham              -82.412333394994            -1121.277319647599
     E_Harris             -107.238101741520            -1459.049226388393
      E_Fermi               +0.524466272842               +7.135729719477

 PW ALGORITHM --------------- ION=   1  ELEC=  14--------------------------------
  K-point    CG iter num      Time(Sec)
        1       6.866667      28.493603
        2       7.222222      28.533516
        3       8.111111      23.802934
        4       9.311111      24.457964
        5       9.711111      28.882269
        6       9.866667      36.709920
        7       7.088889      16.696164
        8       7.377778      20.221927
        9       9.466667      30.771218
       10      10.422222      37.567259
       11       9.888889      34.390237
       12       9.933333      26.844068
       13      10.511111      35.473165
       14       9.444444      29.026956
       15       7.444444      26.230699
       16       7.955556      33.899459
       17       9.133333      29.777711
       18      10.622222      35.118252
       19      10.444444      32.681581
       20       9.244444      31.044860
       21      10.400000      26.669816
       22      10.444444      33.999112
       23       9.555556      22.059836
       24      10.711111      29.650323
       25      10.244444      29.313591
       26      10.200000      33.038935
       27       9.688889      26.529544
       28       9.711111      22.540394
       29      10.066667      26.985027
       30       9.177778      29.351014
       31       9.488889      32.583023

 Density error is 121.645438361980
                          Error Threshold = 0.002857714467

       Energy                       Rydberg                            eV
   E_KohnSham              -93.549449476145            -1272.805557638681
     E_Harris              -94.509724385223            -1285.870768048583
      E_Fermi               +0.607526289894               +8.265819227357

 PW ALGORITHM --------------- ION=   1  ELEC=  15--------------------------------
  K-point    CG iter num      Time(Sec)
        1       2.755556      12.398005
        2       3.400000      17.831670
        3       4.200000      18.757471
        4       3.800000      17.515699
        5       2.977778      13.440382
        6       2.866667      13.152023
        7       3.355556      11.387970
        8       3.866667      14.793643
        9       4.600000      16.270692
       10       3.933333      15.975200
       11       3.333333      13.491309
       12       3.333333      15.334848
       13       4.177778      15.215616
       14       4.377778      17.515428
       15       3.755556      15.064190
       16       3.666667       9.333989
       17       4.533333      19.939217
       18       5.088889      14.832420
       19       4.711111      13.815611
       20       4.133333      12.008847
       21       4.955556      21.257378
       22       4.955556      22.829798
       23       3.666667      16.684510
       24       4.088889      18.555511
       25       4.955556      12.604084
       26       5.044444      23.177776
       27       5.177778      20.365485
       28       2.977778       7.755205
       29       3.400000      15.990290
       30       4.311111      19.193168
       31       2.844444      10.110767

 Density error is 211.194290743461
                          Error Threshold = 0.002857714467

       Energy                       Rydberg                            eV
   E_KohnSham              -94.185236224129            -1281.455880124155
     E_Harris              -94.580865233261            -1286.838688942445
      E_Fermi               +0.602658035115               +8.199583223054

 PW ALGORITHM --------------- ION=   1  ELEC=  16--------------------------------
  K-point    CG iter num      Time(Sec)
        1       2.000000       9.778687
        2       2.000000       5.706904
        3       2.000000       5.468702
        4       2.222222       6.011497
        5       2.044444       9.757980
        6       2.044444       7.377653
        7       2.000000       6.827371
        8       2.000000       5.734854
        9       2.000000       8.494924
       10       2.066667       7.773268
       11       2.000000       6.476860
       12       2.066667      10.161290
       13       2.066667       9.599983
       14       2.000000       7.570219
       15       2.000000       6.098920
       16       2.155556       8.980676
       17       2.000000       6.979725
       18       2.000000       5.551909
       19       2.000000       8.052039
       20       2.000000       5.964531
       21       2.133333       5.903434
       22       2.000000       5.543915
       23       2.200000      10.485048
       24       2.000000       8.642884
       25       2.111111       6.110065
       26       2.200000       7.954080
       27       2.000000       9.388699
       28       2.000000       7.901232
       29       2.066667       7.091490
       30       2.000000      10.887248
       31       2.000000       7.689375

 Density error is 166.359828340793
                          Error Threshold = 0.002857714467

       Energy                       Rydberg                            eV
   E_KohnSham              -94.090503952510            -1280.166981445655
     E_Harris              -94.304765620609            -1283.082160994788
      E_Fermi               +0.602617987035               +8.199038340966

 PW ALGORITHM --------------- ION=   1  ELEC=  17--------------------------------
  K-point    CG iter num      Time(Sec)
        1       2.088889       9.736708
        2       2.466667      12.018043
        3       2.822222      14.276913
        4       2.377778       9.235334
        5       2.400000       9.093143
        6       2.355556       9.968368
        7       2.466667       8.490806
        8       2.800000      12.149162
        9       3.044444      13.589356
       10       2.822222       9.184912
       11       2.533333      12.164606
       12       2.444444      11.647200
       13       2.733333      12.742094
       14       2.911111       7.690810
       15       2.755556       7.488333
       16       2.466667       6.727820
       17       3.066667       8.314584
       18       3.022222      10.893981
       19       3.488889      12.092866
       20       2.777778       9.837815
       21       3.288889      16.720929
       22       2.755556       7.482506
       23       2.422222       6.612532
       24       2.822222       9.684569
       25       3.177778      12.469949
       26       3.355556      12.636012
       27       3.533333      11.258856
       28       2.466667       7.004601
       29       2.466667       6.608550
       30       3.022222       9.870902
       31       2.400000      10.292126

 Density error is 196.869945635169
                          Error Threshold = 0.002857714467

       Energy                       Rydberg                            eV
   E_KohnSham              -93.177365262289            -1267.743092194389
     E_Harris              -94.364646212697            -1283.896878246804
      E_Fermi               +0.603237950089               +8.207473371046

 PW ALGORITHM --------------- ION=   1  ELEC=  18--------------------------------
  K-point    CG iter num      Time(Sec)
        1       2.666667      13.762328
        2       2.288889       9.483601
        3       3.000000       9.296913
        4       2.666667       7.039553
        5       2.444444       6.571069
        6       2.444444       8.328154
        7       2.311111       6.610237
        8       2.844444      11.810797
        9       3.466667      13.663564
       10       2.755556      12.253195
       11       2.644444       9.999654
       12       2.422222      10.109570
       13       2.622222       9.264654
       14       3.888889      13.189877
       15       3.022222      12.753631
       16       3.377778      18.303382
       17       3.622222      17.179705
       18       4.200000      13.138817
       19       3.933333      10.665681
       20       3.200000       8.967445
       21       3.755556      17.767874
       22       3.955556      15.941195
       23       2.511111       8.061685
       24       3.088889      11.067558
       25       3.933333      13.578657
       26       3.577778      10.921633
       27       3.400000      14.849149
       28       2.400000      10.605429
       29       2.622222       7.150263
       30       3.155556      13.947877
       31       2.400000       8.554937

 Density error is 30.328765141130
                          Error Threshold = 0.002857714467

       Energy                       Rydberg                            eV
   E_KohnSham              -93.578223692399            -1273.197050935230
     E_Harris              -93.838940593282            -1276.744286352131
      E_Fermi               +0.610306892241               +8.303651263148

 PW ALGORITHM --------------- ION=   1  ELEC=  19--------------------------------
  K-point    CG iter num      Time(Sec)
        1       2.088889       7.250218
        2       2.044444       6.869943
        3       2.155556       6.364125
        4       2.066667      10.733952
        5       2.177778      11.580869
        6       2.133333      10.211056
        7       2.133333      11.361493
        8       2.111111       9.737025
        9       2.000000       6.669775
       10       2.155556       7.884463
       11       2.244444       6.665377
       12       2.177778       9.010914
       13       2.177778       9.514880
       14       2.044444       6.968322
       15       2.066667       8.119143
       16       2.200000      10.960556
       17       2.177778       7.236482
       18       2.133333       6.465534
       19       2.000000       8.138656
       20       2.222222      10.468206
       21       2.000000      10.790039
       22       2.422222       7.296709
       23       2.177778       8.390348
       24       2.177778      11.605025
       25       2.288889       6.884144
       26       2.288889      11.991717
       27       2.222222      11.854742
       28       2.177778       9.731061
       29       2.244444       7.691695
       30       2.155556       9.254438
       31       2.088889       7.802511

 Density error is 6.559113694399
                          Error Threshold = 0.002857714467

       Energy                       Rydberg                            eV
   E_KohnSham              -93.578258827371            -1273.197528971041
     E_Harris              -93.706347610794            -1274.940266275480
      E_Fermi               +0.614107416174               +8.355360044027

 PW ALGORITHM --------------- ION=   1  ELEC=  20--------------------------------
  K-point    CG iter num      Time(Sec)
        1       2.155556       8.993921
        2       2.244444       8.149821
        3       2.422222       7.967137
        4       2.133333       5.947899
        5       2.000000       9.259758
        6       2.111111       5.653898
        7       2.200000       6.017697
        8       2.222222       6.307336
        9       2.377778       7.083667
       10       2.222222       6.327552
       11       2.044444      10.723923
       12       2.288889       8.229559
       13       2.222222       6.208861
       14       2.288889       6.191183
       15       2.022222       5.674025
       16       2.066667       5.706941
       17       2.111111       8.043041
       18       2.422222      11.153891
       19       2.044444      10.634643
       20       2.355556       6.365307
       21       2.422222       6.602718
       22       2.000000       5.577750
       23       2.088889       9.495618
       24       2.088889      10.596351
       25       2.044444       8.440336
       26       2.044444      11.104959
       27       2.088889       9.435005
       28       2.044444       5.828041
       29       2.155556       6.219559
       30       2.466667       6.673042
       31       2.066667       6.895842

 Density error is 0.385619177363
                          Error Threshold = 0.002857714467

       Energy                       Rydberg                            eV
   E_KohnSham              -93.651623642477            -1274.195708489196
     E_Harris              -93.660587367004            -1274.317666218076
      E_Fermi               +0.617911478630               +8.407116968976

 PW ALGORITHM --------------- ION=   1  ELEC=  21--------------------------------
  K-point    CG iter num      Time(Sec)
        1       3.333333      12.088667
        2       4.044444      15.476095
        3       2.577778       7.079711
        4       2.444444       6.661564
        5       2.511111       9.669841
        6       2.288889       6.342584
        7       3.911111      12.540338
        8       4.488889      16.204703
        9       3.133333      11.639404
       10       2.533333       9.335630
       11       2.488889      11.808221
       12       2.333333      11.669202
       13       2.600000       8.335555
       14       3.200000      14.591835
       15       4.822222      22.262071
       16       2.688889       9.933256
       17       2.911111       9.141558
       18       3.777778      16.559588
       19       4.755556      16.463686
       20       3.044444       8.092562
       21       3.688889      11.380954
       22       3.888889      18.793900
       23       2.444444      10.495660
       24       2.822222      13.862598
       25       3.533333      12.525380
       26       3.177778      12.803685
       27       3.355556      14.780921
       28       2.644444       9.021103
       29       2.422222       7.592717
       30       2.888889       9.108301
       31       2.288889       8.263025

 Density error is 0.927652877095
                          Error Threshold = 0.000584271481

       Energy                       Rydberg                            eV
   E_KohnSham              -93.656888025627            -1274.267334096495
     E_Harris              -93.688462704501            -1274.696929641711
      E_Fermi               +0.613426113817               +8.346090449903

 PW ALGORITHM --------------- ION=   1  ELEC=  22--------------------------------
  K-point    CG iter num      Time(Sec)
        1       2.888889      13.410683
        2       2.311111       9.942452
        3       2.177778       8.446439
        4       2.133333      11.659182
        5       2.200000      10.457795
        6       2.177778       8.756871
        7       2.288889      12.836240
        8       3.488889      16.323189
        9       2.422222      11.500527
       10       2.177778       8.320572
       11       2.244444       7.939892
       12       2.177778       7.354620
       13       2.177778       6.581189
       14       2.400000       6.698844
       15       3.466667      12.551463
       16       2.200000       7.835022
       17       2.422222       8.607397
       18       2.444444       8.745360
       19       2.444444       6.662536
       20       2.688889      10.640486
       21       2.511111      12.121480
       22       2.511111      13.751439
       23       2.133333      10.315979
       24       2.155556       5.954697
       25       2.488889       6.702400
       26       2.288889       8.883599
       27       2.244444       6.062862
       28       2.177778       8.391036
       29       2.200000      10.765701
       30       2.244444       9.469157
       31       2.222222       6.121090

 Density error is 2.016200274544
                          Error Threshold = 0.000584271481

       Energy                       Rydberg                            eV
   E_KohnSham              -93.667839724943            -1274.416339609983
     E_Harris              -93.693988834700            -1274.772116500299
      E_Fermi               +0.613390717014               +8.345608851696

 PW ALGORITHM --------------- ION=   1  ELEC=  23--------------------------------
  K-point    CG iter num      Time(Sec)
        1       2.000000       6.903211
        2       2.000000       6.190798
        3       2.000000       8.129670
        4       2.000000       6.693092
        5       2.000000      10.339014
        6       2.000000      10.280074
        7       2.000000      10.244038
        8       2.000000      10.101563
        9       2.000000      10.015624
       10       2.044444       9.917466
       11       2.066667      11.000840
       12       2.022222       8.113543
       13       2.000000       8.159681
       14       2.000000       5.569174
       15       2.400000       6.850580
       16       2.000000       8.510838
       17       2.044444      10.017167
       18       2.133333       6.853837
       19       2.000000       7.868037
       20       2.133333       6.537720
       21       2.066667       7.725997
       22       2.133333       7.097792
       23       2.000000       9.874520
       24       2.000000      10.244305
       25       2.133333       5.767210
       26       2.044444       5.748037
       27       2.000000       8.369636
       28       2.000000       5.533628
       29       2.044444       7.035662
       30       2.044444      11.362972
       31       2.022222      10.732181

 Density error is 0.631409656886
                          Error Threshold = 0.000584271481

       Energy                       Rydberg                            eV
   E_KohnSham              -93.668074414457            -1274.419532724632
     E_Harris              -93.691415638045            -1274.737106363715
      E_Fermi               +0.613314870360               +8.344576905029

 PW ALGORITHM --------------- ION=   1  ELEC=  24--------------------------------
  K-point    CG iter num      Time(Sec)
        1       2.000000       9.852023
        2       2.155556      10.141065
        3       2.000000      10.605531
        4       2.000000      10.759305
        5       2.000000       7.058829
        6       2.022222       7.776058
        7       2.133333       9.869228
        8       2.222222       8.056445
        9       2.000000       8.348085
       10       2.044444       6.048080
       11       2.044444       5.640069
       12       2.000000       6.317752
       13       2.000000      11.000620
       14       2.200000       9.617453
       15       2.355556       7.301412
       16       2.000000       6.162770
       17       2.222222      11.249605
       18       2.111111       8.728926
       19       2.044444       9.445997
       20       2.066667       6.153276
       21       2.200000       5.847157
       22       2.177778      10.197489
       23       2.000000       8.682563
       24       2.000000       9.233943
       25       2.177778       6.029886
       26       2.088889       6.671334
       27       2.088889       7.693690
       28       2.000000       8.574852
       29       2.044444       5.735844
       30       2.022222       5.786994
       31       2.022222       7.436993

 Density error is 0.647853914849
                          Error Threshold = 0.000584271481

       Energy                       Rydberg                            eV
   E_KohnSham              -93.679411538641            -1274.573782212468
     E_Harris              -93.693018258117            -1274.758911128429
      E_Fermi               +0.613273348771               +8.344011974827

 PW ALGORITHM --------------- ION=   1  ELEC=  25--------------------------------
  K-point    CG iter num      Time(Sec)
        1       2.000000       7.217928
        2       2.000000       9.625276
        3       2.000000      10.766489
        4       2.000000      10.539299
        5       2.000000       5.784431
        6       2.000000       7.907576
        7       2.000000       9.444054
        8       2.000000      10.132385
        9       2.000000       8.608098
       10       2.000000      10.808635
       11       2.000000       9.170889
       12       2.000000       6.038541
       13       2.000000       9.643796
       14       2.111111       6.201356
       15       2.000000       6.655926
       16       2.000000       8.228318
       17       2.111111       6.764264
       18       2.000000       6.170806
       19       2.044444       5.660800
       20       2.000000       5.343969
       21       2.000000       5.566428
       22       2.044444       9.217199
       23       2.000000       7.365558
       24       2.000000       5.799227
       25       2.066667       7.632874
       26       2.044444       5.547901
       27       2.000000      11.225174
       28       2.000000       6.914029
       29       2.000000       6.074651
       30       2.000000       8.088603
       31       2.000000       9.087429

 Density error is 1.265151688663
                          Error Threshold = 0.000584271481

       Energy                       Rydberg                            eV
   E_KohnSham              -93.644362644446            -1274.096917542816
     E_Harris              -93.692764713499            -1274.755461476925
      E_Fermi               +0.613779811632               +8.350902755559

 PW ALGORITHM --------------- ION=   1  ELEC=  26--------------------------------
  K-point    CG iter num      Time(Sec)
        1       2.733333      10.295469
        2       2.822222       8.699087
        3       2.311111       6.356313
        4       2.200000       6.687100
        5       2.177778       6.196427
        6       2.177778       5.979676
        7       2.333333       6.258097
        8       3.400000       9.539589
        9       2.488889      12.301527
       10       2.244444       7.568081
       11       2.222222       6.157025
       12       2.177778      10.050099
       13       2.177778       8.174559
       14       2.466667       6.602316
       15       3.622222      13.783784
       16       2.288889       8.966950
       17       2.511111       6.940519
       18       2.733333      11.800614
       19       3.288889      16.517660
       20       2.844444      11.205945
       21       3.177778      11.210543
       22       2.866667       7.607666
       23       2.222222       5.916123
       24       2.222222       5.845089
       25       3.422222      12.798689
       26       2.555556       9.059812
       27       2.511111       8.034895
       28       2.222222      10.994719
       29       2.222222       9.800256
       30       2.733333      13.278218
       31       2.177778      11.953186

 Density error is 21.440440834148
                          Error Threshold = 0.000584271481

       Energy                       Rydberg                            eV
   E_KohnSham              -93.587426718215            -1273.322264525162
     E_Harris              -93.770787181550            -1275.817011614444
      E_Fermi               +0.610972973883               +8.312713768815

 PW ALGORITHM --------------- ION=   1  ELEC=  27--------------------------------
  K-point    CG iter num      Time(Sec)
        1       2.577778      10.096705
        2       2.933333      11.542485
        3       2.311111       8.340255
        4       2.244444      10.366792
        5       2.244444      11.329469
        6       2.222222      11.446005
        7       2.288889       7.634723
        8       3.511111      13.831451
        9       2.555556       7.064240
       10       2.288889       6.911760
       11       2.266667       6.312273
       12       2.222222       6.015013
       13       2.266667       7.805793
       14       2.555556      12.315299
       15       3.400000      11.260549
       16       2.266667       6.331028
       17       2.577778      11.949174
       18       2.844444       7.840069
       19       3.044444       9.747109
       20       2.511111       7.720509
       21       2.822222      10.865505
       22       2.977778      11.707386
       23       2.266667       7.061380
       24       2.266667       8.867250
       25       3.088889      10.975476
       26       2.488889       7.027111
       27       2.466667      11.343017
       28       2.288889       9.578268
       29       2.266667       6.169716
       30       2.488889      11.963023
       31       2.200000       9.171864

 Density error is 0.262713691692
                          Error Threshold = 0.000584271481

       Energy                       Rydberg                            eV
   E_KohnSham              -93.681092717607            -1274.596655825755
     E_Harris              -93.684482326581            -1274.642773821799
      E_Fermi               +0.615559160860               +8.375112043799

 PW ALGORITHM --------------- ION=   1  ELEC=  28--------------------------------
  K-point    CG iter num      Time(Sec)
        1       2.000000       5.576885
        2       2.000000       5.412160
        3       2.044444       6.642753
        4       2.044444       9.716022
        5       2.000000       5.373249
        6       2.000000       6.735133
        7       2.000000      10.548319
        8       2.000000      11.208515
        9       2.044444       7.961874
       10       2.000000       5.527146
       11       2.000000       5.371497
       12       2.000000       7.111866
       13       2.000000       7.907591
       14       2.044444       7.098170
       15       2.000000       6.358352
       16       2.066667      11.282644
       17       2.088889       8.439651
       18       2.066667       7.066044
       19       2.000000      11.086628
       20       2.000000      11.178658
       21       2.000000       6.057543
       22       2.000000       5.484814
       23       2.000000       5.621786
       24       2.000000       5.638596
       25       2.000000       5.604135
       26       2.044444       6.316112
       27       2.111111      11.204778
       28       2.000000      11.030596
       29       2.000000       7.666525
       30       2.000000       8.664121
       31       2.000000       6.524735

 Density error is 0.088383354501
                          Error Threshold = 0.000398051048

       Energy                       Rydberg                            eV
   E_KohnSham              -93.681732712786            -1274.605363406886
     E_Harris              -93.684440993081            -1274.642211450674
      E_Fermi               +0.615258403628               +8.371020031729

 PW ALGORITHM --------------- ION=   1  ELEC=  29--------------------------------
  K-point    CG iter num      Time(Sec)
        1       2.488889       6.551554
        2       2.600000       7.674608
        3       2.422222      10.050493
        4       2.266667      11.302879
        5       2.266667       9.201787
        6       2.266667       9.755867
        7       2.333333       6.347382
        8       4.200000      14.032178
        9       2.777778       9.767926
       10       2.244444      10.646980
       11       2.288889       9.437738
       12       2.333333      11.770093
       13       2.244444      11.069771
       14       2.511111      12.115379
       15       4.200000      18.967918
       16       2.311111       6.177208
       17       2.511111      10.514408
       18       2.911111       8.435892
       19       2.777778      12.707551
       20       3.111111      11.359030
       21       3.066667      12.964716
       22       2.800000      11.874301
       23       2.288889       9.683056
       24       2.244444       6.218791
       25       2.733333      11.114984
       26       2.622222       7.273525
       27       2.422222       6.475007
       28       2.244444       6.208391
       29       2.333333       6.899730
       30       3.288889       8.887501
       31       2.311111      11.964455

 Density error is 1.753709936163
                          Error Threshold = 0.000133914173

       Energy                       Rydberg                            eV
   E_KohnSham              -93.674054958932            -1274.500902206635
     E_Harris              -93.691636458544            -1274.740110780737
      E_Fermi               +0.613533032820               +8.347545157571

 PW ALGORITHM --------------- ION=   1  ELEC=  30--------------------------------
  K-point    CG iter num      Time(Sec)
        1       2.511111       8.526221
        2       2.288889       7.849018
        3       2.266667       9.876909
        4       2.222222       8.875716
        5       2.177778      10.969902
        6       2.200000       8.183450
        7       2.288889       9.697180
        8       3.400000      15.756474
        9       2.511111       6.618067
       10       2.200000       6.231120
       11       2.244444       6.730033
       12       2.222222       8.170258
       13       2.200000       7.630065
       14       2.511111       6.942859
[...]
      33       6.501636       0.040000
      34       6.514400       0.040000
      35       6.802746       0.040000
      36       6.805936       0.040000
      37       7.140683       0.040000
      38       7.156278       0.040000
      39       7.381599       0.040000
      40       7.395092       0.040000
      41       7.535067       0.040000
      42       7.538198       0.040000
      43       7.884860       0.040000
      44       7.898874       0.040000
      45       8.100508       0.039988

 28/31 kpoint (Cartesian) = 0.848528 0.489898 0.039365 (9920 pws)
       1       0.230033       0.040000
       2       0.237348       0.040000
       3       0.338452       0.040000
       4       0.346277       0.040000
       5       0.576673       0.040000
       6       0.612238       0.040000
       7       0.853099       0.040000
       8       0.917138       0.040000
       9       1.471137       0.040000
      10       1.474668       0.040000
      11       2.047033       0.040000
      12       2.057700       0.040000
      13       2.740800       0.040000
      14       2.751158       0.040000
      15       3.551027       0.040000
      16       3.598225       0.040000
      17       4.437372       0.040000
      18       4.466190       0.040000
      19       5.222523       0.040000
      20       5.225137       0.040000
      21       5.332761       0.040000
      22       5.343997       0.040000
      23       5.414827       0.040000
      24       5.416124       0.040000
      25       5.552706       0.040000
      26       5.579512       0.040000
      27       5.949144       0.040000
      28       5.972882       0.040000
      29       6.484674       0.040000
      30       6.516686       0.040000
      31       6.864749       0.040000
      32       6.876867       0.040000
      33       7.161770       0.040000
      34       7.166519       0.040000
      35       7.783930       0.040000
      36       7.801646       0.040000
      37       8.171475       0.039709
      38       8.184854       0.039518
      39       8.679125       0.000000
      40       8.726977       0.000000
      41       9.434085       0.000000
      42       9.446108       0.000000
      43       9.612751       0.000000
      44       9.645323       0.000000
      45      10.623888       0.000000

 29/31 kpoint (Cartesian) = 0.848528 0.326599 0.039365 (9910 pws)
       1       1.486718       0.080000
       2       1.494125       0.080000
       3       1.594693       0.080000
       4       1.602576       0.080000
       5       1.831409       0.080000
       6       1.866811       0.080000
       7       2.106320       0.080000
       8       2.170193       0.080000
       9       2.718305       0.080000
      10       2.721923       0.080000
      11       3.286821       0.080000
      12       3.296775       0.080000
      13       3.946765       0.080000
      14       3.953191       0.080000
      15       3.994714       0.080000
      16       4.002405       0.080000
      17       4.100266       0.080000
      18       4.106867       0.080000
      19       4.340570       0.080000
      20       4.380615       0.080000
      21       4.581404       0.080000
      22       4.644912       0.080000
      23       4.772924       0.080000
      24       4.822244       0.080000
      25       5.142629       0.080000
      26       5.158502       0.080000
      27       5.635936       0.080000
      28       5.646998       0.080000
      29       6.025900       0.080000
      30       6.043610       0.080000
      31       6.600938       0.080000
      32       6.613676       0.080000
      33       6.863385       0.080000
      34       6.867676       0.080000
      35       7.410906       0.080000
      36       7.463669       0.080000
      37       8.076116       0.079994
      38       8.079305       0.079993
      39       8.345893       0.039783
      40       8.381575       0.024459
      41       9.250635       0.000000
      42       9.261268       0.000000
      43       9.402467       0.000000
      44       9.426260       0.000000
      45      10.478933       0.000000

 30/31 kpoint (Cartesian) = 0.565685 0.653197 0.039365 (9906 pws)
       1       3.211885       0.040000
       2       3.215655       0.040000
       3       3.269673       0.040000
       4       3.280907       0.040000
       5       3.322769       0.040000
       6       3.324402       0.040000
       7       3.376614       0.040000
       8       3.394361       0.040000
       9       3.549379       0.040000
      10       3.573495       0.040000
      11       3.613468       0.040000
      12       3.660867       0.040000
      13       3.834366       0.040000
      14       3.871792       0.040000
      15       3.898882       0.040000
      16       3.934391       0.040000
      17       4.357289       0.040000
      18       4.360387       0.040000
      19       4.563767       0.040000
      20       4.567933       0.040000
      21       4.934792       0.040000
      22       4.950502       0.040000
      23       5.109067       0.040000
      24       5.110533       0.040000
      25       5.507003       0.040000
      26       5.517065       0.040000
      27       5.918435       0.040000
      28       5.925249       0.040000
      29       6.483181       0.040000
      30       6.541700       0.040000
      31       6.824966       0.040000
      32       6.852954       0.040000
      33       7.369668       0.040000
      34       7.388179       0.040000
      35       7.661394       0.040000
      36       7.699022       0.040000
      37       8.190162       0.039416
      38       8.199043       0.039204
      39       8.326868       0.024110
      40       8.329629       0.023508
      41       8.433867       0.004281
      42       8.451281       0.002740
      43       8.521425       0.000268
      44       8.549645       0.000082
      45       8.658291       0.000000

 31/31 kpoint (Cartesian) = 0.707107 0.408248 0.039365 (9940 pws)
       1       2.460012       0.020000
       2       2.463628       0.020000
       3       2.515535       0.020000
       4       2.526929       0.020000
       5       2.570800       0.020000
       6       2.572391       0.020000
       7       2.622709       0.020000
       8       2.640570       0.020000
       9       2.799135       0.020000
      10       2.823886       0.020000
      11       2.859483       0.020000
      12       2.906608       0.020000
      13       3.084165       0.020000
      14       3.118465       0.020000
      15       3.149405       0.020000
      16       3.180441       0.020000
      17       3.608075       0.020000
      18       3.611143       0.020000
      19       3.814034       0.020000
      20       3.818569       0.020000
      21       4.189661       0.020000
      22       4.205083       0.020000
      23       4.360041       0.020000
      24       4.361718       0.020000
      25       4.761875       0.020000
      26       4.772485       0.020000
      27       5.180531       0.020000
      28       5.186778       0.020000
      29       5.754379       0.020000
      30       5.814469       0.020000
      31       6.094129       0.020000
      32       6.122738       0.020000
      33       6.660875       0.020000
      34       6.684528       0.020000
      35       6.985106       0.020000
      36       7.018526       0.020000
      37       7.847404       0.020000
      38       7.848107       0.020000
      39       7.975449       0.020000
      40       7.982572       0.020000
      41       8.957432       0.000000
      42       8.982296       0.000000
      43       9.115154       0.000000
      44       9.128765       0.000000
      45      10.256297       0.000000




 ><><><><><><><><><><><><><><><><><><><><><><

    TOTAL-FORCE (eV/Angstrom)

 ><><><><><><><><><><><><><><><><><><><><><><

     atom              x              y              z
      Al1      +0.001056      +0.000610      -0.771477
      Al2      +0.000385      +0.000222      +0.920647
      Al3      +0.000562      +0.000325      -0.675959
      Al4      +0.006267      +0.003618      +0.329370
      Al5      -0.011918      -0.006881      +0.145354
      Al6      +0.041718      +0.024086      -0.013397
      Al7      -0.029941      -0.017287      -0.548092
      Al8      -0.008060      -0.004654      +0.681081
      Al9      +0.003926      +0.002267      -0.725543
     Al10      -0.000821      -0.000474      +0.626080
     Al11      -0.005357      -0.003093      +0.006068
     Al12      -0.000827      -0.000478      -0.639619
     Al13      +0.003683      +0.002126      +0.725578
     Al14      -0.008292      -0.004788      -0.676091
     Al15      -0.030460      -0.017586      +0.509814
     Al16      +0.041762      +0.024111      +0.003448
     Al17      -0.011715      -0.006764      -0.162065
     Al18      +0.006472      +0.003736      -0.317423
     Al19      +0.000690      +0.000398      +0.677859
     Al20      +0.000632      +0.000365      -0.916659
     Al21      +0.001081      +0.000624      +0.812720
     Al22      -0.000841      -0.000485      +0.008305


 ><><><><><><><><><><><><><><><><><><><><><><

 TOTAL-STRESS (KBAR)

 ><><><><><><><><><><><><><><><><><><><><><><

       -4.365647      -0.306770      +0.032401
       -0.306770      -4.011419      +0.018707
       +0.032401      +0.018707     +27.682556

 Ion relaxation is not converged yet (threshold is +0.000001)

 DIRECT COORDINATES
         atom                   x                   y                   z                 mag                  vx                  vy                  vz
     taud_Al1           +0.000000           +0.000000           +0.000973           +0.000000           +0.000000           +0.000000           +0.000000
     taud_Al2           +0.333333           +0.333333           +0.044581           +0.000000           +0.000000           +0.000000           +0.000000
     taud_Al3           +0.666667           +0.666667           +0.091724           +0.000000           +0.000000           +0.000000           +0.000000
     taud_Al4           +0.000000           +0.000000           +0.135896           +0.000000           +0.000000           +0.000000           +0.000000
     taud_Al5           +0.333333           +0.333333           +0.181396           +0.000000           +0.000000           +0.000000           +0.000000
     taud_Al6           +0.000000           +0.000000           +0.227373           +0.000000           +0.000000           +0.000000           +0.000000
     taud_Al7           +0.366667           +0.366667           +0.273555           +0.000000           +0.000000           +0.000000           +0.000000
     taud_Al8           +0.700000           +0.700000           +0.317570           +0.000000           +0.000000           +0.000000           +0.000000
     taud_Al9           +0.033333           +0.033333           +0.364270           +0.000000           +0.000000           +0.000000           +0.000000
    taud_Al10           +0.366667           +0.366667           +0.408165           +0.000000           +0.000000           +0.000000           +0.000000
    taud_Al11           +0.700000           +0.700000           +0.454497           +0.000000           +0.000000           +0.000000           +0.000000
    taud_Al12           +0.366667           +0.366667           +0.500871           +0.000000           +0.000000           +0.000000           +0.000000
    taud_Al13           +0.033333           +0.033333           +0.544768           +0.000000           +0.000000           +0.000000           +0.000000
    taud_Al14           +0.700000           +0.700000           +0.591523           +0.000000           +0.000000           +0.000000           +0.000000
    taud_Al15           +0.366667           +0.366667           +0.635607           +0.000000           +0.000000           +0.000000           +0.000000
    taud_Al16           +0.000000           +0.000000           +0.681768           +0.000000           +0.000000           +0.000000           +0.000000
    taud_Al17           +0.333333           +0.333333           +0.727745           +0.000000           +0.000000           +0.000000           +0.000000
    taud_Al18           +0.000000           +0.000000           +0.773202           +0.000000           +0.000000           +0.000000           +0.000000
    taud_Al19           +0.666667           +0.666667           +0.817382           +0.000000           +0.000000           +0.000000           +0.000000
    taud_Al20           +0.333333           +0.333333           +0.864512           +0.000000           +0.000000           +0.000000           +0.000000
    taud_Al21           +0.000000           +0.000000           +0.908081           +0.000000           +0.000000           +0.000000           +0.000000
    taud_Al22           +0.666667           +0.666667           +0.954539           +0.000000           +0.000000           +0.000000           +0.000000

 Setup the structure factor in plane wave basis.
 Setup the extrapolated charge.
 Setup the structure factor in plane wave basis.
 Setup the Vl+Vh+Vxc according to new structure factor and new charge.
 Setup the new wave functions?

 -------------------------------------------
 RELAX CELL : 1
 RELAX IONS : 3 (in total: 3)
 -------------------------------------------

 PW ALGORITHM --------------- ION=  +3  ELEC=  +1--------------------------------
  K-point    CG iter num      Time(Sec)
       +1     +46.066667    +128.357173
       +2     +46.044444    +131.077851
       +3     +47.088889    +144.255618
       +4     +50.800000    +151.793437
       +5     +52.422222    +154.080240
       +6     +55.466667    +165.245444
       +7     +46.155556    +121.620318
       +8     +49.000000    +141.136467
       +9     +49.977778    +137.581188
      +10     +51.155556    +161.613181
      +11     +54.044444    +176.328137
      +12     +55.444444    +168.369036
      +13     +52.977778    +137.016246
      +14     +51.422222    +134.741217
      +15     +49.355556    +147.110933
      +16     +47.955556    +126.103033
      +17     +48.755556    +135.926844
      +18     +54.222222    +171.838918
      +19     +57.400000    +177.830409
      +20     +60.022222    +173.773800
      +21     +56.644444    +161.031978
      +22     +54.488889    +145.806014
      +23     +48.866667    +129.978188
      +24     +51.911111    +172.367074
      +25     +57.088889    +183.137791
      +26     +59.822222    +183.401076
      +27     +59.533333    +161.529740
      +28     +51.600000    +155.481985
      +29     +55.866667    +170.038748
      +30     +58.822222    +182.085832
      +31     +53.755556    +146.521132

 Density error is +1.904895870557
                          Error Threshold = +0.000000009157

       Energy                       Rydberg                            eV
   E_KohnSham              -93.464689056250            -1271.652332963237
     E_Harris              -93.815708170384            -1276.428193022384
      E_Fermi               +0.610092056290               +8.300728270083

 PW ALGORITHM --------------- ION=   3  ELEC=   2--------------------------------
  K-point    CG iter num      Time(Sec)
        1       3.511111      16.694597
        2       3.466667      15.390782
        3       3.355556      12.062819
        4       3.288889      14.442186
        5       2.911111      13.855515
        6       2.644444      11.889029
        7       3.555556      13.568938
        8       4.333333      20.226935
        9       3.800000      10.817660
       10       3.111111      11.624128
       11       2.933333      10.845530
       12       2.933333      11.262714
       13       3.088889       9.268903
       14       3.866667      13.021591
       15       4.311111      17.823257
       16       3.355556      10.310511
       17       3.888889       9.902206
       18       4.422222      17.465109
       19       4.711111      19.978115
       20       4.244444      19.457384
       21       4.733333      16.975444
       22       4.422222      18.042467
       23       3.266667      16.490282
       24       3.266667      11.428107
       25       4.777778      20.101876
       26       4.777778      19.735726
       27       4.800000      13.069201
       28       2.911111      11.547988
       29       2.644444      10.188123
       30       3.933333      10.040938
       31       2.644444       6.845304

 Density error is 197.592945067866
                          Error Threshold = 0.002886205864

       Energy                       Rydberg                            eV
   E_KohnSham              -87.494552982038            -1190.424464518613
     E_Harris              -94.553860709412            -1286.471273546322
      E_Fermi               +0.601850871512               +8.188601198824

 PW ALGORITHM --------------- ION=   3  ELEC=   3--------------------------------
  K-point    CG iter num      Time(Sec)
        1       7.177778      28.330815
        2       7.311111      23.571796
        3       8.955556      26.836663
        4      11.000000      33.205963
        5      11.044444      38.227839
        6      11.111111      38.627212
        7       7.533333      29.743708
        8       8.377778      22.923299
        9      10.222222      32.247791
       10      11.400000      36.503242
       11      11.155556      29.597170
       12      11.200000      37.148870
       13      11.133333      32.695498
       14      10.311111      29.249899
       15       8.688889      26.365847
       16       9.311111      27.417376
       17      10.200000      35.121437
       18      11.755556      33.396533
       19      13.111111      37.196298
       20      12.844444      42.131132
       21      12.933333      37.730623
       22      11.355556      40.081940
       23      11.333333      31.492523
       24      11.311111      36.703931
       25      13.022222      38.977866
       26      13.911111      36.968835
       27      13.600000      31.716958
       28      11.355556      31.692088
       29      10.866667      30.764713
       30      12.088889      41.924448
       31      10.666667      36.896971

 Density error is 2754.697882241056
                          Error Threshold = 0.002886205864

       Energy                       Rydberg                            eV
   E_KohnSham              -81.807237408215            -1113.044566390476
     E_Harris             -104.260730695368            -1418.540015100505
      E_Fermi               +0.541627592450               +7.369221451341

 PW ALGORITHM --------------- ION=   3  ELEC=   4--------------------------------
  K-point    CG iter num      Time(Sec)
        1       4.222222      19.924854
        2       6.377778      26.350463
        3       7.933333      28.236735
        4       8.866667      27.414252
        5      10.088889      28.877714
        6      11.422222      40.776870
        7       6.977778      22.172088
        8       7.177778      24.434537
        9       9.444444      34.765859
       10      10.400000      30.411035
       11      11.977778      36.698692
       12      11.888889      36.598139
       13      10.466667      34.490529
       14       9.266667      29.191036
       15       7.355556      21.083284
       16       8.288889      22.561302
       17       8.400000      25.119911
       18      10.333333      33.923127
       19      11.644444      35.985873
       20      12.577778      39.805849
       21      12.844444      38.760319
       22      10.244444      29.939943
       23       8.755556      29.831651
       24      10.555556      24.135510
       25      12.488889      40.508420
       26      12.377778      34.455866
       27      12.133333      37.918453
       28      10.933333      26.059609
       29      12.044444      30.200850
