 *********************************************************
 *                                                       *
 *                  WELCOME TO ABACUS v3.0               *
 *                                                       *
 *            'Atomic-orbital Based Ab-initio            *
 *                  Computation at UStc'                 *
 *                                                       *
 *          Website: http://abacus.ustc.edu.cn/          *
 *                                                       *
 *********************************************************
 Mon Apr 17 15:14:20 2023
 MAKE THE DIR         : OUT.blpstest/
Notice: symbol 'mg_locpsp' is not an element symbol!!!! set the covalent radius to be 0.
 UNIFORM GRID DIM     : 30 * 30 * 30
 UNIFORM GRID DIM(BIG): 30 * 30 * 30
func,idXC_GGA_X_PBE 101
func,idXC_GGA_C_PBE 130
 DONE(0.15621    SEC) : SETUP UNITCELL
 DONE(0.21453    SEC) : SYMMETRY
 DONE(0.524358   SEC) : INIT K-POINTS
 ---------------------------------------------------------
 Self-consistent calculations for electrons
 ---------------------------------------------------------
 SPIN    KPOINTS         PROCESSORS  
 1       286             1           
 ---------------------------------------------------------
 Use plane wave basis
 ---------------------------------------------------------
 ELEMENT NATOM       XC          
 Mg      1           
 ---------------------------------------------------------
 Initial plane wave basis and FFT box
 ---------------------------------------------------------
 DONE(0.52613    SEC) : INIT BASIS
 DONE(0.526189   SEC) : INIT PHI
 DONE(0.562904   SEC) : LOCAL POTENTIAL
 DONE(0.563      SEC) : NON-LOCAL POTENTIAL
 START CHARGE      : atomic
 DONE(0.662899   SEC) : INIT POTENTIAL
 DONE(0.663005   SEC) : INIT OPTIMIZATION
 DONE(0.664848   SEC) : INIT KEDF
======================== Running OFDFT ========================
Iter        Etot(Ha)          Theta      PotNorm     deltaE(Ha)
0     -8.338169465145e-01   2.000e-01   9.325e-02   -8.338e-01  
1     -8.743785337235e-01   1.065e-01   5.327e-02   -4.056e-02  
2     -8.754367475396e-01   1.201e-02   1.530e-02   -1.058e-03  
3     -8.756182053980e-01   6.152e-03   1.094e-02   -1.815e-04  
4     -8.756905081915e-01   3.277e-03   5.919e-03   -7.230e-05  
5     -8.757648954334e-01   7.505e-03   4.755e-04   -7.439e-05  
6     -8.757649539778e-01   6.987e-05   4.275e-05   -5.854e-08  
7     -8.757649552916e-01   1.782e-05   3.237e-06   -1.314e-09  

  |CLASS_NAME---------|NAME---------------|TIME(Sec)-----|CALLS----|AVG------|PER%-------
                       total               10.935         21        0.52      1e+02     %
   Driver              driver_line         10.922         1         11        1e+02     %
   PW_Basis            setuptransform      0.12881        1         0.13      1.2       %
   PW_Basis            recip2real          1.5689         1403      0.0011    14        %
   PW_Basis            gathers_scatterp    0.15688        1403      0.00011   1.4       %
   Potential           update_from_charge  6.2517         156       0.04      57        %
   Potential           cal_v_eff           6.2493         156       0.04      57        %
   H_Hartree_pw        v_hartree           0.49643        156       0.0032    4.5       %
   PW_Basis            real2recip          2.0887         1713      0.0012    19        %
   PW_Basis            gatherp_scatters    0.17616        1713      0.0001    1.6       %
   PotXC               cal_v_eff           5.7211         156       0.037     52        %
   XC_Functional       v_xc                5.1314         78        0.066     47        %
   XC_Functional       v_xc_libxc          5.6147         156       0.036     51        %
   ESolver_OF          Run                 10.27          1         10        94        %
   KEDF_TF             tf_potential        0.72593        155       0.0047    6.6       %
   KEDF_WT             wt_potential        2.6491         155       0.017     24        %
   KEDF_vW             vw_potential        0.46243        155       0.003     4.2       %
 ----------------------------------------------------------------------------------------

 START  Time  : Mon Apr 17 15:14:20 2023
 FINISH Time  : Mon Apr 17 15:14:31 2023
 TOTAL  Time  : 11
 SEE INFORMATION IN : OUT.blpstest/
