 *********************************************************
 *                                                       *
 *                  WELCOME TO ABACUS v3.0               *
 *                                                       *
 *            'Atomic-orbital Based Ab-initio            *
 *                  Computation at UStc'                 *
 *                                                       *
 *          Website: http://abacus.ustc.edu.cn/          *
 *                                                       *
 *********************************************************
 Wed May  3 14:14:01 2023
 MAKE THE DIR         : OUT.oftest/
Notice: symbol 'Li_locpsp' is not an element symbol!!!! set the covalent radius to be 0.
 UNIFORM GRID DIM     : 32 * 32 * 32
 UNIFORM GRID DIM(BIG): 32 * 32 * 32
func,idXC_GGA_X_PBE 101
func,idXC_GGA_C_PBE 130
 DONE(0.178323   SEC) : SETUP UNITCELL
 DONE(0.233707   SEC) : SYMMETRY
 DONE(0.233913   SEC) : INIT K-POINTS
 ---------------------------------------------------------
 Self-consistent calculations for electrons
 ---------------------------------------------------------
 SPIN    KPOINTS         PROCESSORS  
 1       1               1           
 ---------------------------------------------------------
 Use plane wave basis
 ---------------------------------------------------------
 ELEMENT NATOM       XC          
 Li      1           
 ---------------------------------------------------------
 Initial plane wave basis and FFT box
 ---------------------------------------------------------
 DONE(0.235627   SEC) : INIT BASIS
 DONE(0.235653   SEC) : INIT PHI
 DONE(0.295663   SEC) : LOCAL POTENTIAL
 DONE(0.295698   SEC) : NON-LOCAL POTENTIAL
 START CHARGE      : atomic
 DONE(0.415438   SEC) : INIT POTENTIAL
 DONE(0.415593   SEC) : INIT OPTIMIZATION
Default type: double
nnode = 10
nlayer = 3
feg_net_F = 0.540933
 DONE(0.505869   SEC) : INIT KEDF
======================== Running OFDFT ========================
Iter        Etot(Ha)          Theta      PotNorm     deltaE(Ha)
0     -2.663481074403e-01   2.000e-01   7.779e-02   -2.663e-01  
1     -2.761445207929e-01   6.281e-02   5.211e-02   -9.796e-03  
2     -2.769141276089e-01   1.860e-02   1.606e-02   -7.696e-04  
3     -2.770147137802e-01   7.807e-03   6.170e-03   -1.006e-04  
4     -2.770195243364e-01   6.864e-04   2.056e-03   -4.811e-06  
5     -2.770205744505e-01   5.214e-04   1.619e-03   -1.050e-06  
6     -2.770210175860e-01   2.410e-04   8.226e-04   -4.431e-07  
7     -2.770216443557e-01   8.356e-04   6.013e-05   -6.268e-07  
8     -2.770216453153e-01   1.451e-05   3.461e-05   -9.596e-10  

  |CLASS_NAME---------|NAME---------------|TIME(Sec)-----|CALLS----|AVG------|PER%-------
                       total               252.44         21        12        1e+02     %
   Driver              driver_line         252.42         1         2.5e+02   1e+02     %
   PW_Basis            setuptransform      0.14937        1         0.15      0.059     %
   PW_Basis            recip2real          4.0255         3688      0.0011    1.6       %
   PW_Basis            gathers_scatterp    0.40086        3688      0.00011   0.16      %
   Potential           update_from_charge  6.8435         185       0.037     2.7       %
   Potential           cal_v_eff           6.841          185       0.037     2.7       %
   H_Hartree_pw        v_hartree           0.4808         185       0.0026    0.19      %
   PW_Basis            real2recip          3.798          3688      0.001     1.5       %
   PW_Basis            gatherp_scatters    0.25214        3688      6.8e-05   0.1       %
   PotXC               cal_v_eff           6.3376         185       0.034     2.5       %
   XC_Functional       v_xc                125.02         93        1.3       50        %
   XC_Functional       v_xc_libxc          6.3245         185       0.034     2.5       %
   ESolver_OF          Run                 251.93         1         2.5e+02   1e+02     %
   KEDF_vW             vw_potential        0.4689         184       0.0025    0.19      %
 ----------------------------------------------------------------------------------------

 START  Time  : Wed May  3 14:14:01 2023
 FINISH Time  : Wed May  3 14:18:13 2023
 TOTAL  Time  : 2.5e+02
 SEE INFORMATION IN : OUT.oftest/
