 *********************************************************
 *                                                       *
 *                  WELCOME TO ABACUS v3.0               *
 *                                                       *
 *            'Atomic-orbital Based Ab-initio            *
 *                  Computation at UStc'                 *
 *                                                       *
 *          Website: http://abacus.ustc.edu.cn/          *
 *                                                       *
 *********************************************************
 Mon Apr 17 14:43:51 2023
 MAKE THE DIR         : OUT.blpstest/
Notice: symbol 'al_locpsp' is not an element symbol!!!! set the covalent radius to be 0.
 UNIFORM GRID DIM     : 27 * 27 * 27
 UNIFORM GRID DIM(BIG): 27 * 27 * 27
func,idXC_GGA_X_PBE 101
func,idXC_GGA_C_PBE 130
 DONE(0.110633   SEC) : SETUP UNITCELL
 DONE(0.202668   SEC) : SYMMETRY
 DONE(0.965836   SEC) : INIT K-POINTS
 ---------------------------------------------------------
 Self-consistent calculations for electrons
 ---------------------------------------------------------
 SPIN    KPOINTS         PROCESSORS  
 1       256             1           
 ---------------------------------------------------------
 Use plane wave basis
 ---------------------------------------------------------
 ELEMENT NATOM       XC          
 Al      1           
 ---------------------------------------------------------
 Initial plane wave basis and FFT box
 ---------------------------------------------------------
 DONE(0.966893   SEC) : INIT BASIS
 DONE(0.966936   SEC) : INIT PHI
 DONE(1.07084    SEC) : LOCAL POTENTIAL
 DONE(1.07088    SEC) : NON-LOCAL POTENTIAL
 START CHARGE      : atomic
 DONE(1.14992    SEC) : INIT POTENTIAL
 DONE(1.14998    SEC) : INIT OPTIMIZATION
 DONE(1.1509     SEC) : INIT KEDF
======================== Running OFDFT ========================
Iter        Etot(Ha)          Theta      PotNorm     deltaE(Ha)
0     -2.020691974849e+00   2.000e-01   2.034e-01   -2.021e+00  
1     -2.033684217075e+00   5.551e-02   2.679e-01   -1.299e-02  
2     -2.034031836448e+00   5.304e-03   2.711e-01   -3.476e-04  
3     -2.100168434513e+00   7.516e-02   9.862e-02   -6.614e-02  
4     -2.101360878625e+00   6.309e-03   7.759e-03   -1.192e-03  
5     -2.101374237575e+00   1.060e-03   6.000e-04   -1.336e-05  
6     -2.101374331796e+00   8.175e-05   3.429e-04   -9.422e-08  
7     -2.101374379132e+00   9.721e-05   1.506e-04   -4.734e-08  

  |CLASS_NAME---------|NAME---------------|TIME(Sec)-----|CALLS----|AVG------|PER%-------
                       total               13.258         21        0.63      1e+02     %
   Driver              driver_line         13.251         1         13        1e+02     %
   ppcell_vl           init_vloc           0.10368        1         0.1       0.78      %
   PW_Basis            recip2real          2.0884         1646      0.0013    16        %
   PW_Basis            gathers_scatterp    0.15126        1646      9.2e-05   1.1       %
   Potential           update_from_charge  7.0892         183       0.039     53        %
   Potential           cal_v_eff           7.0873         183       0.039     53        %
   H_Hartree_pw        v_hartree           0.56585        183       0.0031    4.3       %
   PW_Basis            real2recip          2.8119         2010      0.0014    21        %
   PW_Basis            gatherp_scatters    0.17884        2010      8.9e-05   1.3       %
   PotXC               cal_v_eff           6.4942         183       0.035     49        %
   XC_Functional       v_xc                6.0567         92        0.066     46        %
   XC_Functional       v_xc_libxc          6.4755         183       0.035     49        %
   ESolver_OF          Run                 12.106         1         12        91        %
   KEDF_TF             tf_potential        0.89795        182       0.0049    6.8       %
   KEDF_WT             wt_potential        3.3112         182       0.018     25        %
   KEDF_vW             vw_potential        0.56858        182       0.0031    4.3       %
 ----------------------------------------------------------------------------------------

 START  Time  : Mon Apr 17 14:43:51 2023
 FINISH Time  : Mon Apr 17 14:44:04 2023
 TOTAL  Time  : 13
 SEE INFORMATION IN : OUT.blpstest/
