 *********************************************************
 *                                                       *
 *                  WELCOME TO ABACUS v3.0               *
 *                                                       *
 *            'Atomic-orbital Based Ab-initio            *
 *                  Computation at UStc'                 *
 *                                                       *
 *          Website: http://abacus.ustc.edu.cn/          *
 *                                                       *
 *********************************************************
 Wed Apr 26 05:32:37 2023
 MAKE THE DIR         : OUT.oftest/
Notice: symbol 'mg_locpsp' is not an element symbol!!!! set the covalent radius to be 0.
 UNIFORM GRID DIM     : 45 * 45 * 45
 UNIFORM GRID DIM(BIG): 45 * 45 * 45
func,idXC_GGA_X_PBE 101
func,idXC_GGA_C_PBE 130
 DONE(0.295267   SEC) : SETUP UNITCELL
 DONE(0.348239   SEC) : SYMMETRY
 DONE(0.348567   SEC) : INIT K-POINTS
 ---------------------------------------------------------
 Self-consistent calculations for electrons
 ---------------------------------------------------------
 SPIN    KPOINTS         PROCESSORS  
 1       1               1           
 ---------------------------------------------------------
 Use plane wave basis
 ---------------------------------------------------------
 ELEMENT NATOM       XC          
 Mg      1           
 ---------------------------------------------------------
 Initial plane wave basis and FFT box
 ---------------------------------------------------------
 DONE(0.352862   SEC) : INIT BASIS
 DONE(0.352893   SEC) : INIT PHI
 DONE(0.479906   SEC) : LOCAL POTENTIAL
 DONE(0.479944   SEC) : NON-LOCAL POTENTIAL
 START CHARGE      : atomic
 DONE(0.796349   SEC) : INIT POTENTIAL
 DONE(0.796839   SEC) : INIT OPTIMIZATION
Default type: double
nnode = 10
nlayer = 3
feg_net_F = 0.540933
 DONE(0.857683   SEC) : INIT KEDF
======================== Running OFDFT ========================
Iter        Etot(Ha)          Theta      PotNorm     deltaE(Ha)
0     -8.502391182686e-01   2.000e-01   9.942e-02   -8.502e-01  
1     -8.865395342655e-01   7.953e-02   6.144e-02   -3.630e-02  
2     -8.873145126733e-01   7.509e-03   3.020e-02   -7.750e-04  
3     -8.874293033360e-01   1.902e-03   3.291e-02   -1.148e-04  
4     -8.878744519132e-01   1.365e-02   1.496e-02   -4.451e-04  
5     -8.878931877113e-01   9.243e-04   9.874e-03   -1.874e-05  
6     -8.879285859416e-01   3.958e-03   1.673e-03   -3.540e-05  
7     -8.879290012556e-01   1.252e-04   1.462e-03   -4.153e-07  
8     -8.879291610763e-01   6.653e-05   1.013e-03   -1.598e-07  

  |CLASS_NAME---------|NAME---------------|TIME(Sec)-----|CALLS----|AVG------|PER%-------
                       total               755.05         21        36        1e+02     %
   Driver              driver_line         755.04         1         7.6e+02   1e+02     %
   PW_Basis            setuptransform      0.25349        1         0.25      0.034     %
   ppcell_vl           init_vloc           0.12686        1         0.13      0.017     %
   Charge              atomic_rho          0.14084        1         0.14      0.019     %
   PW_Basis            recip2real          19.12          4248      0.0045    2.5       %
   PW_Basis            gathers_scatterp    1.4067         4248      0.00033   0.19      %
   Potential           init_pot            0.16997        1         0.17      0.023     %
   Potential           update_from_charge  26.371         213       0.12      3.5       %
   Potential           cal_v_eff           26.363         213       0.12      3.5       %
   H_Hartree_pw        v_hartree           2.247          213       0.011     0.3       %
   PW_Basis            real2recip          18.701         4248      0.0044    2.5       %
   PW_Basis            gatherp_scatters    0.9487         4248      0.00022   0.13      %
   PotXC               cal_v_eff           24.034         213       0.11      3.2       %
   XC_Functional       v_xc                375.1          107       3.5       50        %
   XC_Functional       v_xc_libxc          24             213       0.11      3.2       %
   ESolver_OF          Run                 754.19         1         7.5e+02   1e+02     %
   KEDF_vW             vw_potential        2.1472         212       0.01      0.28      %
 ----------------------------------------------------------------------------------------

 START  Time  : Wed Apr 26 05:32:37 2023
 FINISH Time  : Wed Apr 26 05:45:12 2023
 TOTAL  Time  : 7.6e+02
 SEE INFORMATION IN : OUT.oftest/
