 *********************************************************
 *                                                       *
 *                  WELCOME TO ABACUS v3.0               *
 *                                                       *
 *            'Atomic-orbital Based Ab-initio            *
 *                  Computation at UStc'                 *
 *                                                       *
 *          Website: http://abacus.ustc.edu.cn/          *
 *                                                       *
 *********************************************************
 Tue May  2 23:20:23 2023
 MAKE THE DIR         : OUT.oftest/
Notice: symbol 'al_locpsp' is not an element symbol!!!! set the covalent radius to be 0.
 UNIFORM GRID DIM     : 25 * 25 * 25
 UNIFORM GRID DIM(BIG): 25 * 25 * 25
func,idXC_GGA_X_PBE 101
func,idXC_GGA_C_PBE 130
 DONE(0.124741   SEC) : SETUP UNITCELL
 DONE(0.187399   SEC) : SYMMETRY
 DONE(0.187721   SEC) : INIT K-POINTS
 ---------------------------------------------------------
 Self-consistent calculations for electrons
 ---------------------------------------------------------
 SPIN    KPOINTS         PROCESSORS  
 1       1               1           
 ---------------------------------------------------------
 Use plane wave basis
 ---------------------------------------------------------
 ELEMENT NATOM       XC          
 Al      1           
 ---------------------------------------------------------
 Initial plane wave basis and FFT box
 ---------------------------------------------------------
 DONE(0.188778   SEC) : INIT BASIS
 DONE(0.188803   SEC) : INIT PHI
 DONE(0.212913   SEC) : LOCAL POTENTIAL
 DONE(0.212954   SEC) : NON-LOCAL POTENTIAL
 START CHARGE      : atomic
 DONE(0.262486   SEC) : INIT POTENTIAL
 DONE(0.262541   SEC) : INIT OPTIMIZATION
Default type: double
nnode = 10
nlayer = 3
feg_net_F = 0.540933
 DONE(0.348162   SEC) : INIT KEDF
======================== Running OFDFT ========================
Iter        Etot(Ha)          Theta      PotNorm     deltaE(Ha)
0     -1.977324379149e+00   2.000e-01   1.859e-01   -1.977e+00  
1     -1.982588689681e+00   3.287e-02   2.143e-01   -5.264e-03  
2     -2.083072374587e+00   1.222e-01   1.352e-01   -1.005e-01  
3     -2.089311317679e+00   3.429e-02   1.303e-02   -6.239e-03  
4     -2.089354852986e+00   1.561e-03   3.158e-03   -4.354e-05  
5     -2.089359652172e+00   7.319e-04   1.915e-03   -4.799e-06  
6     -2.089361473554e+00   7.346e-04   1.259e-04   -1.821e-06  
7     -2.089361486183e+00   4.958e-05   1.010e-05   -1.263e-08  
8     -2.089361486238e+00   3.886e-06   5.943e-07   -5.502e-11  

  |CLASS_NAME---------|NAME---------------|TIME(Sec)-----|CALLS----|AVG------|PER%-------
                       total               114.27         21        5.4       1e+02     %
   Driver              driver_line         114.25         1         1.1e+02   1e+02     %
   PW_Basis            recip2real          2.1749         4188      0.00052   1.9       %
   PW_Basis            gathers_scatterp    0.20429        4188      4.9e-05   0.18      %
   Potential           update_from_charge  3.5183         210       0.017     3.1       %
   Potential           cal_v_eff           3.5168         210       0.017     3.1       %
   H_Hartree_pw        v_hartree           0.25884        210       0.0012    0.23      %
   PW_Basis            real2recip          2.1343         4188      0.00051   1.9       %
   PW_Basis            gatherp_scatters    0.11244        4188      2.7e-05   0.098     %
   PotXC               cal_v_eff           3.2471         210       0.015     2.8       %
   XC_Functional       v_xc                56.724         105       0.54      50        %
   XC_Functional       v_xc_libxc          3.2407         210       0.015     2.8       %
   ESolver_OF          Run                 113.92         1         1.1e+02   1e+02     %
   KEDF_vW             vw_potential        0.25133        209       0.0012    0.22      %
 ----------------------------------------------------------------------------------------

 START  Time  : Tue May  2 23:20:23 2023
 FINISH Time  : Tue May  2 23:22:17 2023
 TOTAL  Time  : 1.1e+02
 SEE INFORMATION IN : OUT.oftest/
