 *********************************************************
 *                                                       *
 *                  WELCOME TO ABACUS v3.0               *
 *                                                       *
 *            'Atomic-orbital Based Ab-initio            *
 *                  Computation at UStc'                 *
 *                                                       *
 *          Website: http://abacus.ustc.edu.cn/          *
 *                                                       *
 *********************************************************
 Mon Apr 17 14:43:51 2023
 MAKE THE DIR         : OUT.blpstest/
Notice: symbol 'al_locpsp' is not an element symbol!!!! set the covalent radius to be 0.
 UNIFORM GRID DIM     : 27 * 27 * 27
 UNIFORM GRID DIM(BIG): 27 * 27 * 27
func,idXC_GGA_X_PBE 101
func,idXC_GGA_C_PBE 130
 DONE(0.108366   SEC) : SETUP UNITCELL
 DONE(0.16824    SEC) : SYMMETRY
 DONE(0.528659   SEC) : INIT K-POINTS
 ---------------------------------------------------------
 Self-consistent calculations for electrons
 ---------------------------------------------------------
 SPIN    KPOINTS         PROCESSORS  
 1       256             1           
 ---------------------------------------------------------
 Use plane wave basis
 ---------------------------------------------------------
 ELEMENT NATOM       XC          
 Al      1           
 ---------------------------------------------------------
 Initial plane wave basis and FFT box
 ---------------------------------------------------------
 DONE(0.529677   SEC) : INIT BASIS
 DONE(0.529707   SEC) : INIT PHI
 DONE(0.573882   SEC) : LOCAL POTENTIAL
 DONE(0.57392    SEC) : NON-LOCAL POTENTIAL
 START CHARGE      : atomic
 DONE(0.651058   SEC) : INIT POTENTIAL
 DONE(0.651115   SEC) : INIT OPTIMIZATION
 DONE(0.652326   SEC) : INIT KEDF
======================== Running OFDFT ========================
Iter        Etot(Ha)          Theta      PotNorm     deltaE(Ha)
0     -2.019377261026e+00   2.000e-01   2.081e-01   -2.019e+00  
1     -2.090055177575e+00   9.116e-02   2.130e-01   -7.068e-02  
2     -2.096574887317e+00   1.496e-02   1.212e-01   -6.520e-03  
3     -2.098607297015e+00   1.256e-02   1.968e-02   -2.032e-03  
4     -2.098707807303e+00   3.069e-03   7.742e-03   -1.005e-04  
5     -2.098716538075e+00   7.887e-04   4.138e-03   -8.731e-06  
6     -2.098719086177e+00   5.274e-04   1.316e-03   -2.548e-06  
7     -2.098719277523e+00   7.452e-05   6.827e-04   -1.913e-07  
8     -2.098719338720e+00   6.628e-05   3.895e-04   -6.120e-08  

  |CLASS_NAME---------|NAME---------------|TIME(Sec)-----|CALLS----|AVG------|PER%-------
                       total               11.041         21        0.53      1e+02     %
   Driver              driver_line         11.034         1         11        1e+02     %
   PW_Basis            recip2real          1.9113         1538      0.0012    17        %
   PW_Basis            gathers_scatterp    0.11695        1538      7.6e-05   1.1       %
   Potential           update_from_charge  6.0449         171       0.035     55        %
   Potential           cal_v_eff           6.0428         171       0.035     55        %
   H_Hartree_pw        v_hartree           0.45105        171       0.0026    4.1       %
   PW_Basis            real2recip          2.2431         1878      0.0012    20        %
   PW_Basis            gatherp_scatters    0.14207        1878      7.6e-05   1.3       %
   PotXC               cal_v_eff           5.5531         171       0.032     50        %
   XC_Functional       v_xc                5.1647         86        0.06      47        %
   XC_Functional       v_xc_libxc          5.5396         171       0.032     50        %
   ESolver_OF          Run                 10.388         1         10        94        %
   KEDF_TF             tf_potential        0.79849        170       0.0047    7.2       %
   KEDF_WT             wt_potential        2.8246         170       0.017     26        %
   KEDF_vW             vw_potential        0.50829        170       0.003     4.6       %
 ----------------------------------------------------------------------------------------

 START  Time  : Mon Apr 17 14:43:51 2023
 FINISH Time  : Mon Apr 17 14:44:02 2023
 TOTAL  Time  : 11
 SEE INFORMATION IN : OUT.blpstest/
