 *********************************************************
 *                                                       *
 *                  WELCOME TO ABACUS v3.0               *
 *                                                       *
 *            'Atomic-orbital Based Ab-initio            *
 *                  Computation at UStc'                 *
 *                                                       *
 *          Website: http://abacus.ustc.edu.cn/          *
 *                                                       *
 *********************************************************
 Tue May  2 12:46:29 2023
 MAKE THE DIR         : OUT.blpstest/
Notice: symbol 'al_locpsp' is not an element symbol!!!! set the covalent radius to be 0.
 UNIFORM GRID DIM     : 27 * 27 * 45
 UNIFORM GRID DIM(BIG): 27 * 27 * 45
func,idXC_GGA_X_PBE 101
func,idXC_GGA_C_PBE 130
 DONE(0.208647   SEC) : SETUP UNITCELL
 DONE(0.310103   SEC) : SYMMETRY
 DONE(0.357317   SEC) : INIT K-POINTS
 ---------------------------------------------------------
 Self-consistent calculations for electrons
 ---------------------------------------------------------
 SPIN    KPOINTS         PROCESSORS  
 1       133             1           
 ---------------------------------------------------------
 Use plane wave basis
 ---------------------------------------------------------
 ELEMENT NATOM       XC          
 Al      2           
 ---------------------------------------------------------
 Initial plane wave basis and FFT box
 ---------------------------------------------------------
 DONE(0.363101   SEC) : INIT BASIS
 DONE(0.363137   SEC) : INIT PHI
 DONE(0.635871   SEC) : LOCAL POTENTIAL
 DONE(0.635943   SEC) : NON-LOCAL POTENTIAL
 START CHARGE      : atomic
 DONE(1.00523    SEC) : INIT POTENTIAL
 DONE(1.00547    SEC) : INIT OPTIMIZATION
Default type: double
 DONE(1.00777    SEC) : INIT KEDF
======================== Running OFDFT ========================
Iter        Etot(Ha)          Theta      PotNorm     deltaE(Ha)
0     -4.044863776280e+00   2.000e-01   1.938e-01   -4.045e+00  
1     -4.048311639981e+00   1.662e-02   2.044e-01   -3.448e-03  
2     -4.080213947002e+00   4.842e-02   2.794e-01   -3.190e-02  
3     -4.207780023406e+00   7.679e-02   8.478e-02   -1.276e-01  
4     -4.211394421172e+00   1.021e-02   6.689e-03   -3.614e-03  
5     -4.211435779284e+00   1.946e-03   4.301e-04   -4.136e-05  
6     -4.211435917049e+00   9.181e-05   4.102e-05   -1.378e-07  
7     -4.211435918073e+00   6.346e-06   1.749e-05   -1.023e-09  

  |CLASS_NAME---------|NAME---------------|TIME(Sec)-----|CALLS----|AVG------|PER%-------
                       total               21.299         21        1         1e+02     %
   Driver              driver_line         21.264         1         21        1e+02     %
   PW_Basis            setuptransform      0.14488        1         0.14      0.68      %
   ppcell_vl           init_vloc           0.27245        1         0.27      1.3       %
   Charge              atomic_rho          0.28596        1         0.29      1.3       %
   PW_Basis            recip2real          4.6718         2244      0.0021    22        %
   PW_Basis            gathers_scatterp    0.51922        2244      0.00023   2.4       %
   Potential           update_from_charge  12.121         173       0.07      57        %
   Potential           cal_v_eff           12.117         173       0.07      57        %
   H_Hartree_pw        v_hartree           1.1082         173       0.0064    5.2       %
   PW_Basis            real2recip          5.2501         2244      0.0023    25        %
   PW_Basis            gatherp_scatters    0.42847        2244      0.00019   2         %
   PotXC               cal_v_eff           10.949         173       0.063     51        %
   XC_Functional       v_xc                10.174         87        0.12      48        %
   XC_Functional       v_xc_libxc          10.855         173       0.063     51        %
   ESolver_OF          Run                 20.29          1         20        95        %
   KEDF_LKT            LKT_potential       6.7632         172       0.039     32        %
   KEDF_vW             vw_potential        0.98647        172       0.0057    4.6       %
 ----------------------------------------------------------------------------------------

 START  Time  : Tue May  2 12:46:29 2023
 FINISH Time  : Tue May  2 12:46:50 2023
 TOTAL  Time  : 21
 SEE INFORMATION IN : OUT.blpstest/
