 *********************************************************
 *                                                       *
 *                  WELCOME TO ABACUS v3.0               *
 *                                                       *
 *            'Atomic-orbital Based Ab-initio            *
 *                  Computation at UStc'                 *
 *                                                       *
 *          Website: http://abacus.ustc.edu.cn/          *
 *                                                       *
 *********************************************************
 Mon Apr 17 15:14:00 2023
 MAKE THE DIR         : OUT.blpstest/
Notice: symbol 'mg_locpsp' is not an element symbol!!!! set the covalent radius to be 0.
 UNIFORM GRID DIM     : 30 * 30 * 50
 UNIFORM GRID DIM(BIG): 30 * 30 * 50
func,idXC_GGA_X_PBE 101
func,idXC_GGA_C_PBE 130
 DONE(0.18974    SEC) : SETUP UNITCELL
 DONE(0.244565   SEC) : SYMMETRY
 DONE(0.272991   SEC) : INIT K-POINTS
 ---------------------------------------------------------
 Self-consistent calculations for electrons
 ---------------------------------------------------------
 SPIN    KPOINTS         PROCESSORS  
 1       133             1           
 ---------------------------------------------------------
 Use plane wave basis
 ---------------------------------------------------------
 ELEMENT NATOM       XC          
 Mg      2           
 ---------------------------------------------------------
 Initial plane wave basis and FFT box
 ---------------------------------------------------------
 DONE(0.280245   SEC) : INIT BASIS
 DONE(0.280267   SEC) : INIT PHI
 DONE(0.547021   SEC) : LOCAL POTENTIAL
 DONE(0.547058   SEC) : NON-LOCAL POTENTIAL
 START CHARGE      : atomic
 DONE(0.975192   SEC) : INIT POTENTIAL
 DONE(0.975516   SEC) : INIT OPTIMIZATION
 DONE(0.978171   SEC) : INIT KEDF
======================== Running OFDFT ========================
Iter        Etot(Ha)          Theta      PotNorm     deltaE(Ha)
0     -1.692516930129e+00   2.000e-01   1.096e-01   -1.693e+00  
1     -1.777662228637e+00   1.072e-01   6.685e-02   -8.515e-02  
2     -1.780249282103e+00   1.344e-02   7.205e-03   -2.587e-03  
3     -1.780278950532e+00   1.361e-03   3.373e-03   -2.967e-05  
4     -1.780297545192e+00   2.436e-03   7.836e-04   -1.859e-05  
5     -1.780298395276e+00   4.451e-04   5.358e-05   -8.501e-07  
6     -1.780298397614e+00   1.612e-05   6.722e-06   -2.338e-09  

  |CLASS_NAME---------|NAME---------------|TIME(Sec)-----|CALLS----|AVG------|PER%-------
                       total               33.102         21        1.6       1e+02     %
   Driver              driver_line         33.091         1         33        1e+02     %
   PW_Basis            setuptransform      0.16019        1         0.16      0.48      %
   ppcell_vl           init_vloc           0.26667        1         0.27      0.81      %
   Charge              atomic_rho          0.29531        1         0.3       0.89      %
   PW_Basis            recip2real          5.7975         1898      0.0031    18        %
   PW_Basis            gathers_scatterp    0.78846        1898      0.00042   2.4       %
   Potential           init_pot            0.12926        1         0.13      0.39      %
   Potential           update_from_charge  21.105         211       0.1       64        %
   Potential           cal_v_eff           21.098         211       0.1       64        %
   H_Hartree_pw        v_hartree           1.9159         211       0.0091    5.8       %
   PW_Basis            real2recip          7.6772         2318      0.0033    23        %
   PW_Basis            gatherp_scatters    0.77701        2318      0.00034   2.3       %
   PotXC               cal_v_eff           19.079         211       0.09      58        %
   XC_Functional       v_xc                16.122         106       0.15      49        %
   XC_Functional       v_xc_libxc          18.879         211       0.089     57        %
   ESolver_OF          Run                 32.123         1         32        97        %
   KEDF_TF             tf_potential        1.6588         210       0.0079    5         %
   KEDF_WT             wt_potential        7.0956         210       0.034     21        %
   KEDF_vW             vw_potential        1.4925         210       0.0071    4.5       %
 ----------------------------------------------------------------------------------------

 START  Time  : Mon Apr 17 15:14:00 2023
 FINISH Time  : Mon Apr 17 15:14:33 2023
 TOTAL  Time  : 33
 SEE INFORMATION IN : OUT.blpstest/
