 *********************************************************
 *                                                       *
 *                  WELCOME TO ABACUS v3.0               *
 *                                                       *
 *            'Atomic-orbital Based Ab-initio            *
 *                  Computation at UStc'                 *
 *                                                       *
 *          Website: http://abacus.ustc.edu.cn/          *
 *                                                       *
 *********************************************************
 Tue May  2 12:46:29 2023
 MAKE THE DIR         : OUT.blpstest/
Notice: symbol 'al_locpsp' is not an element symbol!!!! set the covalent radius to be 0.
 UNIFORM GRID DIM     : 27 * 27 * 45
 UNIFORM GRID DIM(BIG): 27 * 27 * 45
func,idXC_GGA_X_PBE 101
func,idXC_GGA_C_PBE 130
 DONE(0.222621   SEC) : SETUP UNITCELL
 DONE(0.340153   SEC) : SYMMETRY
 DONE(0.383555   SEC) : INIT K-POINTS
 ---------------------------------------------------------
 Self-consistent calculations for electrons
 ---------------------------------------------------------
 SPIN    KPOINTS         PROCESSORS  
 1       133             1           
 ---------------------------------------------------------
 Use plane wave basis
 ---------------------------------------------------------
 ELEMENT NATOM       XC          
 Al      2           
 ---------------------------------------------------------
 Initial plane wave basis and FFT box
 ---------------------------------------------------------
 DONE(0.389015   SEC) : INIT BASIS
 DONE(0.389045   SEC) : INIT PHI
 DONE(0.706914   SEC) : LOCAL POTENTIAL
 DONE(0.706994   SEC) : NON-LOCAL POTENTIAL
 START CHARGE      : atomic
 DONE(1.17919    SEC) : INIT POTENTIAL
 DONE(1.17944    SEC) : INIT OPTIMIZATION
Default type: double
 DONE(1.18229    SEC) : INIT KEDF
======================== Running OFDFT ========================
Iter        Etot(Ha)          Theta      PotNorm     deltaE(Ha)
0     -4.045112977882e+00   2.000e-01   1.927e-01   -4.045e+00  
1     -4.203177737177e+00   1.032e-01   1.403e-01   -1.581e-01  
2     -4.211021624152e+00   1.242e-02   4.148e-02   -7.844e-03  
3     -4.211300316312e+00   2.025e-03   1.227e-02   -2.787e-04  
4     -4.211347407165e+00   1.877e-03   1.082e-03   -4.709e-05  
5     -4.211348056732e+00   1.565e-04   2.058e-04   -6.496e-07  
6     -4.211348077188e+00   2.912e-05   7.721e-05   -2.046e-08  

  |CLASS_NAME---------|NAME---------------|TIME(Sec)-----|CALLS----|AVG------|PER%-------
                       total               18.832         21        0.9       1e+02     %
   Driver              driver_line         18.819         1         19        1e+02     %
   PW_Basis            setuptransform      0.19738        1         0.2       1         %
   ppcell_vl           init_vloc           0.31763        1         0.32      1.7       %
   Charge              atomic_rho          0.34744        1         0.35      1.8       %
   PW_Basis            recip2real          3.9768         1581      0.0025    21        %
   PW_Basis            gathers_scatterp    0.48841        1581      0.00031   2.6       %
   Potential           init_pot            0.10532        1         0.11      0.56      %
   Potential           update_from_charge  10.788         122       0.088     57        %
   Potential           cal_v_eff           10.783         122       0.088     57        %
   H_Hartree_pw        v_hartree           0.91876        122       0.0075    4.9       %
   PW_Basis            real2recip          4.5539         1581      0.0029    24        %
   PW_Basis            gatherp_scatters    0.36625        1581      0.00023   1.9       %
   PotXC               cal_v_eff           9.801          122       0.08      52        %
   XC_Functional       v_xc                8.8618         61        0.15      47        %
   XC_Functional       v_xc_libxc          9.6321         122       0.079     51        %
   ESolver_OF          Run                 17.648         1         18        94        %
   KEDF_LKT            LKT_potential       5.7161         121       0.047     30        %
   KEDF_vW             vw_potential        0.84204        121       0.007     4.5       %
 ----------------------------------------------------------------------------------------

 START  Time  : Tue May  2 12:46:29 2023
 FINISH Time  : Tue May  2 12:46:48 2023
 TOTAL  Time  : 19
 SEE INFORMATION IN : OUT.blpstest/
