 *********************************************************
 *                                                       *
 *                  WELCOME TO ABACUS v3.0               *
 *                                                       *
 *            'Atomic-orbital Based Ab-initio            *
 *                  Computation at UStc'                 *
 *                                                       *
 *          Website: http://abacus.ustc.edu.cn/          *
 *                                                       *
 *********************************************************
 Mon Jul 24 14:10:10 2023
 MAKE THE DIR         : OUT.blpstest/
Notice: symbol 'Ga_locpsp' is not an element symbol!!!! set the covalent radius to be 0.
Notice: symbol 'P_locpsp' is not an element symbol!!!! set the covalent radius to be 0.
 UNIFORM GRID DIM     : 36 * 36 * 36
 UNIFORM GRID DIM(BIG): 36 * 36 * 36
func,idXC_GGA_X_PBE 101
func,idXC_GGA_C_PBE 130
 DONE(0.234873   SEC) : SETUP UNITCELL
 DONE(0.291363   SEC) : SYMMETRY
 DONE(0.661166   SEC) : INIT K-POINTS
 ---------------------------------------------------------
 Self-consistent calculations for electrons
 ---------------------------------------------------------
 SPIN    KPOINTS         PROCESSORS  
 1       256             1           
 ---------------------------------------------------------
 Use plane wave basis
 ---------------------------------------------------------
 ELEMENT NATOM       XC          
 Ga      1           
 P       1           
 ---------------------------------------------------------
 Initial plane wave basis and FFT box
 ---------------------------------------------------------
 DONE(0.810442   SEC) : INIT PLANEWAVE
 MEMORY FOR PSI (MB)  : 74.5312
 DONE(0.861141   SEC) : LOCAL POTENTIAL
 DONE(0.861248   SEC) : NON-LOCAL POTENTIAL
 DONE(0.861681   SEC) : INIT BASIS
 START CHARGE      : atomic
 DONE(1.00964    SEC) : INIT SCF
 ITER   ETOT(eV)       EDIFF(eV)      DRHO       TIME(s)    
 CG1    -2.349725e+02  0.000000e+00   2.786e+00  1.047e+02  
 CG2    -2.423762e+02  -7.403681e+00  2.293e-01  6.183e+01  
 CG3    -2.431197e+02  -7.435085e-01  1.154e-02  5.553e+01  
 CG4    -2.431404e+02  -2.061647e-02  2.782e-04  6.711e+01  
 CG5    -2.431422e+02  -1.849023e-03  2.182e-05  1.163e+02  
 CG6    -2.431423e+02  -6.243164e-05  8.975e-07  9.273e+01  
 CG7    -2.431423e+02  -2.449489e-06  2.332e-09  9.806e+01  
 CG8    -2.431423e+02  -6.959447e-08  1.515e-09  1.218e+02  
 CG9    -2.431423e+02  -2.090630e-09  5.927e-11  6.398e+01  

  |CLASS_NAME---------|NAME---------------|TIME(Sec)-----|CALLS----|AVG------|PER%-------
                       total               783            17        46        1e+02     %
   Driver              driver_line         782.99         1         7.8e+02   1e+02     %
   PW_Basis            setuptransform      0.21486        1         0.21      0.027     %
   PW_Basis_K          setuptransform      0.11101        1         0.11      0.014     %
   ESolver_KS_PW       Run                 782.1          1         7.8e+02   1e+02     %
   PW_Basis            recip2real          0.26294        62        0.0042    0.034     %
   Potential           update_from_charge  1.8507         10        0.19      0.24      %
   Potential           cal_v_eff           1.848          10        0.18      0.24      %
   H_Hartree_pw        v_hartree           0.15615        10        0.016     0.02      %
   PW_Basis            real2recip          0.59006        98        0.006     0.075     %
   PotXC               cal_v_eff           1.6507         10        0.17      0.21      %
   XC_Functional       v_xc                438.59         5         88        56        %
   XC_Functional       v_xc_libxc          1.6353         10        0.16      0.21      %
   HSolverPW           solve               779.57         9         87        1e+02     %
   DiagoIterAssist     diagH_subspace      155.56         2304      0.068     20        %
   OperatorPW          hPsi                693.14         78297     0.0089    89        %
   Operator            EkineticPW          3.6513         78297     4.7e-05   0.47      %
   Operator            VeffPW              687.62         78297     0.0088    88        %
   PW_Basis_K          recip2real          363            105945    0.0034    46        %
   PW_Basis_K          gathers_scatterp    47.365         105945    0.00045   6         %
   PW_Basis_K          real2recip          270.06         96729     0.0028    34        %
   PW_Basis_K          gatherp_scatters    15.208         96729     0.00016   1.9       %
   Operator            NonlocalPW          0.22418        78297     2.9e-06   0.029     %
   DiagoIterAssist     LAPACK_subspace     0.83188        2304      0.00036   0.11      %
   DiagoCG             diag_once           583.35         2304      0.25      75        %
   ElecStatePW         psiToRho            38.766         9         4.3       5         %
   Charge              mix_rho             0.38112        8         0.048     0.049     %
 ----------------------------------------------------------------------------------------

 START  Time  : Mon Jul 24 14:10:10 2023
 FINISH Time  : Mon Jul 24 14:23:13 2023
 TOTAL  Time  : 7.8e+02
 SEE INFORMATION IN : OUT.blpstest/
