 *********************************************************
 *                                                       *
 *                  WELCOME TO ABACUS v3.0               *
 *                                                       *
 *            'Atomic-orbital Based Ab-initio            *
 *                  Computation at UStc'                 *
 *                                                       *
 *          Website: http://abacus.ustc.edu.cn/          *
 *                                                       *
 *********************************************************
 Wed May  3 01:10:42 2023
 MAKE THE DIR         : OUT.oftest/
Notice: symbol 'mg_locpsp' is not an element symbol!!!! set the covalent radius to be 0.
 UNIFORM GRID DIM     : 32 * 32 * 32
 UNIFORM GRID DIM(BIG): 32 * 32 * 32
func,idXC_GGA_X_PBE 101
func,idXC_GGA_C_PBE 130
 DONE(0.169448   SEC) : SETUP UNITCELL
 DONE(0.228391   SEC) : SYMMETRY
 DONE(0.228688   SEC) : INIT K-POINTS
 ---------------------------------------------------------
 Self-consistent calculations for electrons
 ---------------------------------------------------------
 SPIN    KPOINTS         PROCESSORS  
 1       1               1           
 ---------------------------------------------------------
 Use plane wave basis
 ---------------------------------------------------------
 ELEMENT NATOM       XC          
 Mg      1           
 ---------------------------------------------------------
 Initial plane wave basis and FFT box
 ---------------------------------------------------------
 DONE(0.230575   SEC) : INIT BASIS
 DONE(0.230608   SEC) : INIT PHI
 DONE(0.273977   SEC) : LOCAL POTENTIAL
 DONE(0.274318   SEC) : NON-LOCAL POTENTIAL
 START CHARGE      : atomic
 DONE(0.367372   SEC) : INIT POTENTIAL
 DONE(0.367526   SEC) : INIT OPTIMIZATION
Default type: double
nnode = 10
nlayer = 3
feg_net_F = 0.540933
 DONE(0.444268   SEC) : INIT KEDF
======================== Running OFDFT ========================
Iter        Etot(Ha)          Theta      PotNorm     deltaE(Ha)
0     -8.326985424884e-01   2.000e-01   9.801e-02   -8.327e-01  
1     -8.738365555765e-01   1.058e-01   4.691e-02   -4.114e-02  
2     -8.746524226728e-01   9.884e-03   8.811e-03   -8.159e-04  
3     -8.747043694078e-01   3.424e-03   7.910e-03   -5.195e-05  
4     -8.747356382813e-01   2.772e-03   4.058e-03   -3.127e-05  
5     -8.747516785833e-01   3.090e-03   2.938e-04   -1.604e-05  
6     -8.747517159759e-01   5.984e-05   3.675e-05   -3.739e-08  
7     -8.747517167086e-01   1.218e-05   2.553e-05   -7.327e-10  

  |CLASS_NAME---------|NAME---------------|TIME(Sec)-----|CALLS----|AVG------|PER%-------
                       total               213.1          21        10        1e+02     %
   Driver              driver_line         213.09         1         2.1e+02   1e+02     %
   PW_Basis            setuptransform      0.14844        1         0.15      0.07      %
   PW_Basis            recip2real          3.3103         3168      0.001     1.6       %
   PW_Basis            gathers_scatterp    0.34428        3168      0.00011   0.16      %
   Potential           update_from_charge  5.7522         159       0.036     2.7       %
   Potential           cal_v_eff           5.75           159       0.036     2.7       %
   H_Hartree_pw        v_hartree           0.4031         159       0.0025    0.19      %
   PW_Basis            real2recip          3.175          3168      0.001     1.5       %
   PW_Basis            gatherp_scatters    0.21117        3168      6.7e-05   0.099     %
   PotXC               cal_v_eff           5.3287         159       0.034     2.5       %
   XC_Functional       v_xc                105.51         80        1.3       50        %
   XC_Functional       v_xc_libxc          5.3185         159       0.033     2.5       %
   ESolver_OF          Run                 212.66         1         2.1e+02   1e+02     %
   KEDF_vW             vw_potential        0.38827        158       0.0025    0.18      %
 ----------------------------------------------------------------------------------------

 START  Time  : Wed May  3 01:10:42 2023
 FINISH Time  : Wed May  3 01:14:16 2023
 TOTAL  Time  : 2.1e+02
 SEE INFORMATION IN : OUT.oftest/
