 *********************************************************
 *                                                       *
 *                  WELCOME TO ABACUS v3.0               *
 *                                                       *
 *            'Atomic-orbital Based Ab-initio            *
 *                  Computation at UStc'                 *
 *                                                       *
 *          Website: http://abacus.ustc.edu.cn/          *
 *                                                       *
 *********************************************************
 Mon Apr 17 15:02:33 2023
 MAKE THE DIR         : OUT.blpstest/
Notice: symbol 'mg_locpsp' is not an element symbol!!!! set the covalent radius to be 0.
 UNIFORM GRID DIM     : 30 * 30 * 30
 UNIFORM GRID DIM(BIG): 30 * 30 * 30
func,idXC_GGA_X_PBE 101
func,idXC_GGA_C_PBE 130
 DONE(0.172087   SEC) : SETUP UNITCELL
 DONE(0.231033   SEC) : SYMMETRY
 DONE(0.539789   SEC) : INIT K-POINTS
 ---------------------------------------------------------
 Self-consistent calculations for electrons
 ---------------------------------------------------------
 SPIN    KPOINTS         PROCESSORS  
 1       286             1           
 ---------------------------------------------------------
 Use plane wave basis
 ---------------------------------------------------------
 ELEMENT NATOM       XC          
 Mg      1           
 ---------------------------------------------------------
 Initial plane wave basis and FFT box
 ---------------------------------------------------------
 DONE(0.541785   SEC) : INIT BASIS
 DONE(0.541855   SEC) : INIT PHI
 DONE(0.579626   SEC) : LOCAL POTENTIAL
 DONE(0.579753   SEC) : NON-LOCAL POTENTIAL
 START CHARGE      : atomic
 DONE(0.700778   SEC) : INIT POTENTIAL
 DONE(0.700932   SEC) : INIT OPTIMIZATION
 DONE(0.702943   SEC) : INIT KEDF
======================== Running OFDFT ========================
Iter        Etot(Ha)          Theta      PotNorm     deltaE(Ha)
0     -8.340162661366e-01   2.000e-01   9.193e-02   -8.340e-01  
1     -8.742423237165e-01   1.066e-01   5.350e-02   -4.023e-02  
2     -8.756577399953e-01   2.241e-02   8.288e-03   -1.415e-03  
3     -8.757036544469e-01   3.235e-03   2.289e-03   -4.591e-05  
4     -8.757101296183e-01   2.114e-03   1.599e-04   -6.475e-06  
5     -8.757101395686e-01   3.307e-05   1.637e-05   -9.950e-09  
6     -8.757101397446e-01   5.954e-06   4.433e-06   -1.760e-10  

  |CLASS_NAME---------|NAME---------------|TIME(Sec)-----|CALLS----|AVG------|PER%-------
                       total               11.257         21        0.54      1e+02     %
   Driver              driver_line         11.239         1         11        1e+02     %
   PW_Basis            setuptransform      0.14007        1         0.14      1.2       %
   PW_Basis            recip2real          1.5989         1457      0.0011    14        %
   PW_Basis            gathers_scatterp    0.16665        1457      0.00011   1.5       %
   Potential           update_from_charge  6.5618         162       0.041     58        %
   Potential           cal_v_eff           6.5588         162       0.04      58        %
   H_Hartree_pw        v_hartree           0.49974        162       0.0031    4.4       %
   PW_Basis            real2recip          2.1822         1779      0.0012    19        %
   PW_Basis            gatherp_scatters    0.19123        1779      0.00011   1.7       %
   PotXC               cal_v_eff           6.0273         162       0.037     54        %
   XC_Functional       v_xc                5.3059         81        0.066     47        %
   XC_Functional       v_xc_libxc          5.9036         162       0.036     52        %
   ESolver_OF          Run                 10.554         1         11        94        %
   KEDF_TF             tf_potential        0.72556        161       0.0045    6.4       %
   KEDF_WT             wt_potential        2.6516         161       0.016     24        %
   KEDF_vW             vw_potential        0.4583         161       0.0028    4.1       %
 ----------------------------------------------------------------------------------------

 START  Time  : Mon Apr 17 15:02:33 2023
 FINISH Time  : Mon Apr 17 15:02:44 2023
 TOTAL  Time  : 11
 SEE INFORMATION IN : OUT.blpstest/
