 *********************************************************
 *                                                       *
 *                  WELCOME TO ABACUS v3.0               *
 *                                                       *
 *            'Atomic-orbital Based Ab-initio            *
 *                  Computation at UStc'                 *
 *                                                       *
 *          Website: http://abacus.ustc.edu.cn/          *
 *                                                       *
 *********************************************************
 Wed Apr 26 00:08:07 2023
 MAKE THE DIR         : OUT.oftest/
Notice: symbol 'al_locpsp' is not an element symbol!!!! set the covalent radius to be 0.
 UNIFORM GRID DIM     : 25 * 25 * 25
 UNIFORM GRID DIM(BIG): 25 * 25 * 25
func,idXC_GGA_X_PBE 101
func,idXC_GGA_C_PBE 130
 DONE(0.0860058  SEC) : SETUP UNITCELL
 DONE(0.143944   SEC) : SYMMETRY
 DONE(0.144232   SEC) : INIT K-POINTS
 ---------------------------------------------------------
 Self-consistent calculations for electrons
 ---------------------------------------------------------
 SPIN    KPOINTS         PROCESSORS  
 1       1               1           
 ---------------------------------------------------------
 Use plane wave basis
 ---------------------------------------------------------
 ELEMENT NATOM       XC          
 Al      1           
 ---------------------------------------------------------
 Initial plane wave basis and FFT box
 ---------------------------------------------------------
 DONE(0.145177   SEC) : INIT BASIS
 DONE(0.145199   SEC) : INIT PHI
 DONE(0.168933   SEC) : LOCAL POTENTIAL
 DONE(0.168976   SEC) : NON-LOCAL POTENTIAL
 START CHARGE      : atomic
 DONE(0.218781   SEC) : INIT POTENTIAL
 DONE(0.218831   SEC) : INIT OPTIMIZATION
Default type: double
nnode = 10
nlayer = 3
feg_net_F = 0.540933
 DONE(0.293695   SEC) : INIT KEDF
======================== Running OFDFT ========================
Iter        Etot(Ha)          Theta      PotNorm     deltaE(Ha)
0     -1.940042538144e+00   2.000e-01   2.626e-01   -1.940e+00  
1     -2.062038544888e+00   1.310e-01   1.473e-01   -1.220e-01  
2     -2.065507774498e+00   1.491e-02   1.319e-02   -3.469e-03  
3     -2.065539857960e+00   1.516e-03   5.087e-03   -3.208e-05  
4     -2.065546102344e+00   7.152e-04   3.009e-03   -6.244e-06  
5     -2.065550015532e+00   9.960e-04   1.877e-04   -3.913e-06  
6     -2.065550023679e+00   2.205e-05   1.443e-05   -8.148e-09  
7     -2.065550023731e+00   2.440e-06   3.118e-06   -5.222e-11  

  |CLASS_NAME---------|NAME---------------|TIME(Sec)-----|CALLS----|AVG------|PER%-------
                       total               81.924         21        3.9       1e+02     %
   Driver              driver_line         81.917         1         82        1e+02     %
   PW_Basis            recip2real          1.5786         3048      0.00052   1.9       %
   PW_Basis            gathers_scatterp    0.13735        3048      4.5e-05   0.17      %
   Potential           update_from_charge  2.5529         153       0.017     3.1       %
   Potential           cal_v_eff           2.5515         153       0.017     3.1       %
   H_Hartree_pw        v_hartree           0.18552        153       0.0012    0.23      %
   PW_Basis            real2recip          1.5085         3048      0.00049   1.8       %
   PotXC               cal_v_eff           2.3577         153       0.015     2.9       %
   XC_Functional       v_xc                40.48          77        0.53      49        %
   XC_Functional       v_xc_libxc          2.353          153       0.015     2.9       %
   ESolver_OF          Run                 81.63          1         82        1e+02     %
   KEDF_vW             vw_potential        0.18175        152       0.0012    0.22      %
 ----------------------------------------------------------------------------------------

 START  Time  : Wed Apr 26 00:08:07 2023
 FINISH Time  : Wed Apr 26 00:09:29 2023
 TOTAL  Time  : 82
 SEE INFORMATION IN : OUT.oftest/
