 *********************************************************
 *                                                       *
 *                  WELCOME TO ABACUS v3.0               *
 *                                                       *
 *            'Atomic-orbital Based Ab-initio            *
 *                  Computation at UStc'                 *
 *                                                       *
 *          Website: http://abacus.ustc.edu.cn/          *
 *                                                       *
 *********************************************************
 Wed Mar 22 12:09:23 2023
 MAKE THE DIR         : OUT.blpstest/
Notice: symbol 'Ga_locpsp' is not an element symbol!!!! set the covalent radius to be 0.
Notice: symbol 'As_locpsp' is not an element symbol!!!! set the covalent radius to be 0.
 UNIFORM GRID DIM     : 40 * 40 * 40
 UNIFORM GRID DIM(BIG): 40 * 40 * 40
func,idXC_GGA_X_PBE 101
func,idXC_GGA_C_PBE 130
 DONE(0.270446   SEC) : SETUP UNITCELL
 DONE(0.312455   SEC) : SYMMETRY
 DONE(0.497315   SEC) : INIT K-POINTS
 ---------------------------------------------------------
 Self-consistent calculations for electrons
 ---------------------------------------------------------
 SPIN    KPOINTS         PROCESSORS  
 1       256             1           
 ---------------------------------------------------------
 Use plane wave basis
 ---------------------------------------------------------
 ELEMENT NATOM       XC          
 Ga      1           
 As      1           
 ---------------------------------------------------------
 Initial plane wave basis and FFT box
 ---------------------------------------------------------
 DONE(0.614814   SEC) : INIT PLANEWAVE
 MEMORY FOR PSI (MB)  : 85.1133
 DONE(0.65975    SEC) : LOCAL POTENTIAL
 DONE(0.659805   SEC) : NON-LOCAL POTENTIAL
 DONE(0.659887   SEC) : INIT BASIS
 START CHARGE      : atomic
 DONE(0.770568   SEC) : INIT SCF
 ITER   ETOT(eV)       EDIFF(eV)      DRHO       TIME(s)    
 CG1    -2.252444e+02  0.000000e+00   2.340e+00  8.367e+01  
 CG2    -2.311707e+02  -5.926326e+00  2.188e-01  3.796e+01  
 CG3    -2.319175e+02  -7.467779e-01  1.889e-02  3.525e+01  
 CG4    -2.319563e+02  -3.877369e-02  1.617e-04  3.402e+01  
 CG5    -2.319582e+02  -1.973413e-03  3.966e-05  5.048e+01  
 CG6    -2.319584e+02  -1.151407e-04  1.198e-06  3.657e+01  
 CG7    -2.319584e+02  -3.451789e-06  5.205e-09  4.094e+01  
 CG8    -2.319584e+02  -5.036789e-08  1.224e-10  4.868e+01  

  |CLASS_NAME---------|NAME---------------|TIME(Sec)-----|CALLS----|AVG------|PER%-------
                       total               368.37         17        22        1e+02     %
   Driver              driver_line         368.36         1         3.7e+02   1e+02     %
   PW_Basis            setuptransform      0.24549        1         0.25      0.067     %
   ESolver_KS_PW       Run                 367.69         1         3.7e+02   1e+02     %
   PW_Basis            recip2real          0.1455         56        0.0026    0.039     %
   Potential           update_from_charge  0.84995        9         0.094     0.23      %
   Potential           cal_v_eff           0.84787        9         0.094     0.23      %
   PW_Basis            real2recip          0.19777        88        0.0022    0.054     %
   PotXC               cal_v_eff           0.77827        9         0.086     0.21      %
   XC_Functional       v_xc                210.32         5         42        57        %
   XC_Functional       v_xc_libxc          0.77016        9         0.086     0.21      %
   HSolverPW           solve               366.61         8         46        1e+02     %
   DiagoIterAssist     diagH_subspace      66.985         2048      0.033     18        %
   OperatorPW          hPsi                326.48         73406     0.0044    89        %
   Operator            EkineticPW          1.7227         73406     2.3e-05   0.47      %
   Operator            VeffPW              323.89         73406     0.0044    88        %
   PW_Basis_K          recip2real          161.29         97982     0.0016    44        %
   PW_Basis_K          gathers_scatterp    24.362         97982     0.00025   6.6       %
   PW_Basis_K          real2recip          118.04         89790     0.0013    32        %
   PW_Basis_K          gatherp_scatters    7.9427         89790     8.8e-05   2.2       %
   Operator            NonlocalPW          0.13314        73406     1.8e-06   0.036     %
   DiagoIterAssist     LAPACK_subspace     0.34608        2048      0.00017   0.094     %
   DiagoCG             diag_once           282.41         2048      0.14      77        %
   ElecStatePW         psiToRho            15.941         8         2         4.3       %
   Charge              mix_rho             0.11025        7         0.016     0.03      %
 ----------------------------------------------------------------------------------------

 START  Time  : Wed Mar 22 12:09:23 2023
 FINISH Time  : Wed Mar 22 12:15:31 2023
 TOTAL  Time  : 3.7e+02
 SEE INFORMATION IN : OUT.blpstest/
