                                                                                     
                             WELCOME TO ABACUS                                       
                                                                                     
               'Atomic-orbital Based Ab-initio Computation at UStc'                  
                                                                                     
                     Website: http://abacus.ustc.edu.cn/                             
                                                                                     
    Version: Parallel, in development
    Processor Number is 1
    Start Time is Fri Sep 10 11:34:50 2021
                                                                                     
 ------------------------------------------------------------------------------------

 READING GENERAL INFORMATION
                           global_out_dir = OUT.blpstest/
                           global_in_card = INPUT
                               pseudo_dir = ./
                              orbital_dir = ./
                              pseudo_type = blps
                                    DRANK = 1
                                    DSIZE = 1
                                   DCOLOR = 1
                                    GRANK = 1
                                    GSIZE = 1




 >>>>>>>>>>>>>>>>>>>>>>>>>>>>>>>>>>>>>>>>>>>>>>>>>>>>>>>>>>>>>>>>>>>>>>
 |                                                                    |
 | Reading atom information in unitcell:                              |
 | From the input file and the structure file we know the number of   |
 | different elments in this unitcell, then we list the detail        |
 | information for each element, especially the zeta and polar atomic |
 | orbital number for each element. The total atom number is counted. |
 | We calculate the nearest atom distance for each atom and show the  |
 | Cartesian and Direct coordinates for each atom. We list the file   |
 | address for atomic orbitals. The volume and the lattice vectors    |
 | in real and reciprocal space is also shown.                        |
 |                                                                    |
 <<<<<<<<<<<<<<<<<<<<<<<<<<<<<<<<<<<<<<<<<<<<<<<<<<<<<<<<<<<<<<<<<<<<<<




 READING UNITCELL INFORMATION
                                    ntype = 1
                 atom label for species 1 = Si
                  lattice constant (Bohr) = 4.74487
              lattice constant (Angstrom) = 2.51088

 READING ATOM TYPE 1
                               atom label = Si
                      L=0, number of zeta = 1
                      L=1, number of zeta = 1
                      L=2, number of zeta = 1
             number of atom for this type = 2
                      start magnetization = FALSE
                      start magnetization = FALSE

                        TOTAL ATOM NUMBER = 2

 DIRECT COORDINATES
         atom                   x                   y                   z                 mag                  vx                  vy                  vz
     taud_Si1                   0                   0                   0                   0                   0                   0                   0
     taud_Si2            0.666667            0.333333                 0.5                   0                   0                   0                   0


                          Volume (Bohr^3) = 147.347
                             Volume (A^3) = 21.8345

 Lattice vectors: (Cartesian coordinate: in unit of a_0)
                   +1                  +0                  +0
                 -0.5           +0.866025                  +0
                   +0                  +0            +1.59271
 Reciprocal vectors: (Cartesian coordinate: in unit of 2 pi/a_0)
                   +1            +0.57735                  -0
                   -0             +1.1547                  -0
                   +0                  -0           +0.627862




 >>>>>>>>>>>>>>>>>>>>>>>>>>>>>>>>>>>>>>>>>>>>>>>>>>>>>>>>>>>>>>>>>>>>>>
 |                                                                    |
 | Reading pseudopotentials files:                                    |
 | The pseudopotential file is in UPF format. The 'NC' indicates that |
 | the type of pseudopotential is 'norm conserving'. Functional of    |
 | exchange and correlation is decided by 4 given parameters in UPF   |
 | file.  We also read in the 'core correction' if there exists.      |
 | Also we can read the valence electrons number and the maximal      |
 | angular momentum used in this pseudopotential. We also read in the |
 | trail wave function, trail atomic density and local-pseudopotential|
 | on logrithmic grid. The non-local pseudopotential projector is also|
 | read in if there is any.                                           |
 |                                                                    |
 <<<<<<<<<<<<<<<<<<<<<<<<<<<<<<<<<<<<<<<<<<<<<<<<<<<<<<<<<<<<<<<<<<<<<<




                PAO radial cut off (Bohr) = 16

 Read in pseudopotential file is si.lda.lps
                     pseudopotential type = 
                            functional Ex = LDA
                            functional Ec = LDA
                          functional GCEx = NOGX
                          functional GCEc = NOGC
                 nonlocal core correction = 0
                        valence electrons = 4
                                     lmax = 0
                           number of zeta = 0
                     number of projectors = 0
     initial pseudo atomic orbital number = 0
                                   NLOCAL = 18

 SETUP THE ELECTRONS NUMBER
            electron number of element Si = 4
      total electron number of element Si = 8
                           occupied bands = 4
                                   NBANDS = 12
 DONE : SETUP UNITCELL Time : 0.0946031 (SEC)





 >>>>>>>>>>>>>>>>>>>>>>>>>>>>>>>>>>>>>>>>>>>>>>>>>>>>>>>>>>>>>>>>>>>>>>
 |                                                                    |
 | Doing symmetry analysis:                                           |
 | We calculate the norm of 3 vectors and the angles between them,    |
 | the type of Bravais lattice is given. We can judge if the unticell |
 | is a primitive cell. Finally we give the point group operation for |
 | this unitcell. We we use the point group operations to do symmetry |
 | analysis on given k-point mesh and the charge density.             |
 |                                                                    |
 <<<<<<<<<<<<<<<<<<<<<<<<<<<<<<<<<<<<<<<<<<<<<<<<<<<<<<<<<<<<<<<<<<<<<<




 LATTICE VECTORS: (CARTESIAN COORDINATE: IN UNIT OF A0)
                   +1                  +0                  +0
                 -0.5           +0.866025                  +0
                   +0                  +0            +1.59271
                       right hand lattice = 1
                                   NORM_A = 1
                                   NORM_B = 1
                                   NORM_C = 1.59271
                           ALPHA (DEGREE) = 120
                           BETA  (DEGREE) = 90
                           GAMMA (DEGREE) = 90
                             BRAVAIS TYPE = 4
                     BRAVAIS LATTICE NAME = 04. Hexagonal cell
 STANDARD LATTICE VECTORS: (CARTESIAN COORDINATE: IN UNIT OF A0)
                   +1                  +0                  +0
                 -0.5           +0.866025                  +0
                   +0                  +0            +1.59271
                                    IBRAV = 4
                                  BRAVAIS = HEXAGONAL CELL
                       LATTICE CONSTANT A = 5.46173
                                C/A RATIO = 0.663867
                                    ibrav = 4
                        ROTATION MATRICES = 24
              PURE POINT GROUP OPERATIONS = 12
                   SPACE GROUP OPERATIONS = 12
                                       C2 = 3
                                       C3 = 2
                                       C4 = 0
                                       C6 = 0
                                       S1 = 4
                                       S3 = 2
                                       S4 = 0
                                       S6 = 0
                              POINT GROUP = D_3h
 DONE : SYMMETRY Time : 0.182661 (SEC)





 >>>>>>>>>>>>>>>>>>>>>>>>>>>>>>>>>>>>>>>>>>>>>>>>>>>>>>>>>>>>>>>>>>>>>>
 |                                                                    |
 | Setup K-points                                                     |
 | We setup the k-points according to input parameters.               |
 | The reduced k-points are set according to symmetry operations.     |
 | We treat the spin as another set of k-points.                      |
 |                                                                    |
 <<<<<<<<<<<<<<<<<<<<<<<<<<<<<<<<<<<<<<<<<<<<<<<<<<<<<<<<<<<<<<<<<<<<<<





 SETUP K-POINTS
                                    nspin = 1
                   Input type of k points = Monkhorst-Pack(Gamma)
                                   nkstot = 1728
                               nkstot_ibz = 133
      IBZ             DirectX             DirectY             DirectZ              Weight    ibz2bz
        1                   0                   0                   0         0.000578704         0
        2            0.916667           0.0833333                   0          0.00347222         1
        3            0.833333            0.166667                   0          0.00347222         2
        4                0.75                0.25                   0          0.00347222         3
        5            0.666667            0.333333                   0          0.00347222         4
        6            0.583333            0.416667                   0          0.00347222         5
        7                 0.5                 0.5                   0          0.00173611         6
        8            0.916667            0.916667                   0          0.00347222        13
        9            0.916667            0.833333                   0          0.00694444        14
       10            0.916667                0.75                   0          0.00694444        15
       11            0.916667            0.666667                   0          0.00694444        16
       12            0.916667            0.583333                   0          0.00694444        17
       13            0.833333            0.833333                   0          0.00347222        26
       14            0.833333                0.75                   0          0.00694444        27
       15            0.833333            0.666667                   0          0.00694444        28
       16            0.833333            0.583333                   0          0.00347222        29
       17                0.75                0.75                   0          0.00347222        39
       18                0.75            0.666667                   0          0.00694444        40
       19            0.666667            0.666667                   0          0.00115741        52
       20                   0                   0            0.916667          0.00115741       144
       21            0.916667           0.0833333            0.916667          0.00694444       145
       22            0.833333            0.166667            0.916667          0.00694444       146
       23                0.75                0.25            0.916667          0.00694444       147
       24            0.666667            0.333333            0.916667          0.00694444       148
       25            0.583333            0.416667            0.916667          0.00694444       149
       26                 0.5                 0.5            0.916667          0.00347222       150
       27            0.916667            0.916667            0.916667          0.00694444       157
       28            0.916667            0.833333            0.916667           0.0138889       158
       29            0.916667                0.75            0.916667           0.0138889       159
       30            0.916667            0.666667            0.916667           0.0138889       160
       31            0.916667            0.583333            0.916667           0.0138889       161
       32            0.833333            0.833333            0.916667          0.00694444       170
       33            0.833333                0.75            0.916667           0.0138889       171
       34            0.833333            0.666667            0.916667           0.0138889       172
       35            0.833333            0.583333            0.916667          0.00694444       173
       36                0.75                0.75            0.916667          0.00694444       183
       37                0.75            0.666667            0.916667           0.0138889       184
       38            0.666667            0.666667            0.916667          0.00231481       196
       39                   0                   0            0.833333          0.00115741       288
       40            0.916667           0.0833333            0.833333          0.00694444       289
       41            0.833333            0.166667            0.833333          0.00694444       290
       42                0.75                0.25            0.833333          0.00694444       291
       43            0.666667            0.333333            0.833333          0.00694444       292
       44            0.583333            0.416667            0.833333          0.00694444       293
       45                 0.5                 0.5            0.833333          0.00347222       294
       46            0.916667            0.916667            0.833333          0.00694444       301
       47            0.916667            0.833333            0.833333           0.0138889       302
       48            0.916667                0.75            0.833333           0.0138889       303
       49            0.916667            0.666667            0.833333           0.0138889       304
       50            0.916667            0.583333            0.833333           0.0138889       305
       51            0.833333            0.833333            0.833333          0.00694444       314
       52            0.833333                0.75            0.833333           0.0138889       315
       53            0.833333            0.666667            0.833333           0.0138889       316
       54            0.833333            0.583333            0.833333          0.00694444       317
       55                0.75                0.75            0.833333          0.00694444       327
       56                0.75            0.666667            0.833333           0.0138889       328
       57            0.666667            0.666667            0.833333          0.00231481       340
       58                   0                   0                0.75          0.00115741       432
       59            0.916667           0.0833333                0.75          0.00694444       433
       60            0.833333            0.166667                0.75          0.00694444       434
       61                0.75                0.25                0.75          0.00694444       435
       62            0.666667            0.333333                0.75          0.00694444       436
       63            0.583333            0.416667                0.75          0.00694444       437
       64                 0.5                 0.5                0.75          0.00347222       438
       65            0.916667            0.916667                0.75          0.00694444       445
       66            0.916667            0.833333                0.75           0.0138889       446
       67            0.916667                0.75                0.75           0.0138889       447
       68            0.916667            0.666667                0.75           0.0138889       448
       69            0.916667            0.583333                0.75           0.0138889       449
       70            0.833333            0.833333                0.75          0.00694444       458
       71            0.833333                0.75                0.75           0.0138889       459
       72            0.833333            0.666667                0.75           0.0138889       460
       73            0.833333            0.583333                0.75          0.00694444       461
       74                0.75                0.75                0.75          0.00694444       471
       75                0.75            0.666667                0.75           0.0138889       472
       76            0.666667            0.666667                0.75          0.00231481       484
       77                   0                   0            0.666667          0.00115741       576
       78            0.916667           0.0833333            0.666667          0.00694444       577
       79            0.833333            0.166667            0.666667          0.00694444       578
       80                0.75                0.25            0.666667          0.00694444       579
       81            0.666667            0.333333            0.666667          0.00694444       580
       82            0.583333            0.416667            0.666667          0.00694444       581
       83                 0.5                 0.5            0.666667          0.00347222       582
       84            0.916667            0.916667            0.666667          0.00694444       589
       85            0.916667            0.833333            0.666667           0.0138889       590
       86            0.916667                0.75            0.666667           0.0138889       591
       87            0.916667            0.666667            0.666667           0.0138889       592
       88            0.916667            0.583333            0.666667           0.0138889       593
       89            0.833333            0.833333            0.666667          0.00694444       602
       90            0.833333                0.75            0.666667           0.0138889       603
       91            0.833333            0.666667            0.666667           0.0138889       604
       92            0.833333            0.583333            0.666667          0.00694444       605
       93                0.75                0.75            0.666667          0.00694444       615
       94                0.75            0.666667            0.666667           0.0138889       616
       95            0.666667            0.666667            0.666667          0.00231481       628
       96                   0                   0            0.583333          0.00115741       720
       97            0.916667           0.0833333            0.583333          0.00694444       721
       98            0.833333            0.166667            0.583333          0.00694444       722
       99                0.75                0.25            0.583333          0.00694444       723
      100            0.666667            0.333333            0.583333          0.00694444       724
      101            0.583333            0.416667            0.583333          0.00694444       725
      102                 0.5                 0.5            0.583333          0.00347222       726
      103            0.916667            0.916667            0.583333          0.00694444       733
      104            0.916667            0.833333            0.583333           0.0138889       734
      105            0.916667                0.75            0.583333           0.0138889       735
      106            0.916667            0.666667            0.583333           0.0138889       736
      107            0.916667            0.583333            0.583333           0.0138889       737
      108            0.833333            0.833333            0.583333          0.00694444       746
      109            0.833333                0.75            0.583333           0.0138889       747
      110            0.833333            0.666667            0.583333           0.0138889       748
      111            0.833333            0.583333            0.583333          0.00694444       749
      112                0.75                0.75            0.583333          0.00694444       759
      113                0.75            0.666667            0.583333           0.0138889       760
      114            0.666667            0.666667            0.583333          0.00231481       772
      115                   0                   0                 0.5         0.000578704       864
      116            0.916667           0.0833333                 0.5          0.00347222       865
      117            0.833333            0.166667                 0.5          0.00347222       866
      118                0.75                0.25                 0.5          0.00347222       867
      119            0.666667            0.333333                 0.5          0.00347222       868
      120            0.583333            0.416667                 0.5          0.00347222       869
      121                 0.5                 0.5                 0.5          0.00173611       870
      122            0.916667            0.916667                 0.5          0.00347222       877
      123            0.916667            0.833333                 0.5          0.00694444       878
      124            0.916667                0.75                 0.5          0.00694444       879
      125            0.916667            0.666667                 0.5          0.00694444       880
      126            0.916667            0.583333                 0.5          0.00694444       881
      127            0.833333            0.833333                 0.5          0.00347222       890
      128            0.833333                0.75                 0.5          0.00694444       891
      129            0.833333            0.666667                 0.5          0.00694444       892
      130            0.833333            0.583333                 0.5          0.00347222       893
      131                0.75                0.75                 0.5          0.00347222       903
      132                0.75            0.666667                 0.5          0.00694444       904
      133            0.666667            0.666667                 0.5          0.00115741       916
                               nkstot now = 133

  KPOINTS            DIRECT_X            DIRECT_Y            DIRECT_Z              WEIGHT
        1                   0                   0                   0         0.000578704
        2            0.916667           0.0833333                   0          0.00347222
        3            0.833333            0.166667                   0          0.00347222
        4                0.75                0.25                   0          0.00347222
        5            0.666667            0.333333                   0          0.00347222
        6            0.583333            0.416667                   0          0.00347222
        7                 0.5                 0.5                   0          0.00173611
        8            0.916667            0.916667                   0          0.00347222
        9            0.916667            0.833333                   0          0.00694444
       10            0.916667                0.75                   0          0.00694444
       11            0.916667            0.666667                   0          0.00694444
       12            0.916667            0.583333                   0          0.00694444
       13            0.833333            0.833333                   0          0.00347222
       14            0.833333                0.75                   0          0.00694444
       15            0.833333            0.666667                   0          0.00694444
       16            0.833333            0.583333                   0          0.00347222
       17                0.75                0.75                   0          0.00347222
       18                0.75            0.666667                   0          0.00694444
       19            0.666667            0.666667                   0          0.00115741
       20                   0                   0            0.916667          0.00115741
       21            0.916667           0.0833333            0.916667          0.00694444
       22            0.833333            0.166667            0.916667          0.00694444
       23                0.75                0.25            0.916667          0.00694444
       24            0.666667            0.333333            0.916667          0.00694444
       25            0.583333            0.416667            0.916667          0.00694444
       26                 0.5                 0.5            0.916667          0.00347222
       27            0.916667            0.916667            0.916667          0.00694444
       28            0.916667            0.833333            0.916667           0.0138889
       29            0.916667                0.75            0.916667           0.0138889
       30            0.916667            0.666667            0.916667           0.0138889
       31            0.916667            0.583333            0.916667           0.0138889
       32            0.833333            0.833333            0.916667          0.00694444
       33            0.833333                0.75            0.916667           0.0138889
       34            0.833333            0.666667            0.916667           0.0138889
       35            0.833333            0.583333            0.916667          0.00694444
       36                0.75                0.75            0.916667          0.00694444
       37                0.75            0.666667            0.916667           0.0138889
       38            0.666667            0.666667            0.916667          0.00231481
       39                   0                   0            0.833333          0.00115741
       40            0.916667           0.0833333            0.833333          0.00694444
       41            0.833333            0.166667            0.833333          0.00694444
       42                0.75                0.25            0.833333          0.00694444
       43            0.666667            0.333333            0.833333          0.00694444
       44            0.583333            0.416667            0.833333          0.00694444
       45                 0.5                 0.5            0.833333          0.00347222
       46            0.916667            0.916667            0.833333          0.00694444
       47            0.916667            0.833333            0.833333           0.0138889
       48            0.916667                0.75            0.833333           0.0138889
       49            0.916667            0.666667            0.833333           0.0138889
       50            0.916667            0.583333            0.833333           0.0138889
       51            0.833333            0.833333            0.833333          0.00694444
       52            0.833333                0.75            0.833333           0.0138889
       53            0.833333            0.666667            0.833333           0.0138889
       54            0.833333            0.583333            0.833333          0.00694444
       55                0.75                0.75            0.833333          0.00694444
       56                0.75            0.666667            0.833333           0.0138889
       57            0.666667            0.666667            0.833333          0.00231481
       58                   0                   0                0.75          0.00115741
       59            0.916667           0.0833333                0.75          0.00694444
       60            0.833333            0.166667                0.75          0.00694444
       61                0.75                0.25                0.75          0.00694444
       62            0.666667            0.333333                0.75          0.00694444
       63            0.583333            0.416667                0.75          0.00694444
       64                 0.5                 0.5                0.75          0.00347222
       65            0.916667            0.916667                0.75          0.00694444
       66            0.916667            0.833333                0.75           0.0138889
       67            0.916667                0.75                0.75           0.0138889
       68            0.916667            0.666667                0.75           0.0138889
       69            0.916667            0.583333                0.75           0.0138889
       70            0.833333            0.833333                0.75          0.00694444
       71            0.833333                0.75                0.75           0.0138889
       72            0.833333            0.666667                0.75           0.0138889
       73            0.833333            0.583333                0.75          0.00694444
       74                0.75                0.75                0.75          0.00694444
       75                0.75            0.666667                0.75           0.0138889
       76            0.666667            0.666667                0.75          0.00231481
       77                   0                   0            0.666667          0.00115741
       78            0.916667           0.0833333            0.666667          0.00694444
       79            0.833333            0.166667            0.666667          0.00694444
       80                0.75                0.25            0.666667          0.00694444
       81            0.666667            0.333333            0.666667          0.00694444
       82            0.583333            0.416667            0.666667          0.00694444
       83                 0.5                 0.5            0.666667          0.00347222
       84            0.916667            0.916667            0.666667          0.00694444
       85            0.916667            0.833333            0.666667           0.0138889
       86            0.916667                0.75            0.666667           0.0138889
       87            0.916667            0.666667            0.666667           0.0138889
       88            0.916667            0.583333            0.666667           0.0138889
       89            0.833333            0.833333            0.666667          0.00694444
       90            0.833333                0.75            0.666667           0.0138889
       91            0.833333            0.666667            0.666667           0.0138889
       92            0.833333            0.583333            0.666667          0.00694444
       93                0.75                0.75            0.666667          0.00694444
       94                0.75            0.666667            0.666667           0.0138889
       95            0.666667            0.666667            0.666667          0.00231481
       96                   0                   0            0.583333          0.00115741
       97            0.916667           0.0833333            0.583333          0.00694444
       98            0.833333            0.166667            0.583333          0.00694444
       99                0.75                0.25            0.583333          0.00694444
      100            0.666667            0.333333            0.583333          0.00694444
      101            0.583333            0.416667            0.583333          0.00694444
      102                 0.5                 0.5            0.583333          0.00347222
      103            0.916667            0.916667            0.583333          0.00694444
      104            0.916667            0.833333            0.583333           0.0138889
      105            0.916667                0.75            0.583333           0.0138889
      106            0.916667            0.666667            0.583333           0.0138889
      107            0.916667            0.583333            0.583333           0.0138889
      108            0.833333            0.833333            0.583333          0.00694444
      109            0.833333                0.75            0.583333           0.0138889
      110            0.833333            0.666667            0.583333           0.0138889
      111            0.833333            0.583333            0.583333          0.00694444
      112                0.75                0.75            0.583333          0.00694444
      113                0.75            0.666667            0.583333           0.0138889
      114            0.666667            0.666667            0.583333          0.00231481
      115                   0                   0                 0.5         0.000578704
      116            0.916667           0.0833333                 0.5          0.00347222
      117            0.833333            0.166667                 0.5          0.00347222
      118                0.75                0.25                 0.5          0.00347222
      119            0.666667            0.333333                 0.5          0.00347222
      120            0.583333            0.416667                 0.5          0.00347222
      121                 0.5                 0.5                 0.5          0.00173611
      122            0.916667            0.916667                 0.5          0.00347222
      123            0.916667            0.833333                 0.5          0.00694444
      124            0.916667                0.75                 0.5          0.00694444
      125            0.916667            0.666667                 0.5          0.00694444
      126            0.916667            0.583333                 0.5          0.00694444
      127            0.833333            0.833333                 0.5          0.00347222
      128            0.833333                0.75                 0.5          0.00694444
      129            0.833333            0.666667                 0.5          0.00694444
      130            0.833333            0.583333                 0.5          0.00347222
      131                0.75                0.75                 0.5          0.00347222
      132                0.75            0.666667                 0.5          0.00694444
      133            0.666667            0.666667                 0.5          0.00115741

           k-point number in this process = 133
       minimum distributed K point number = 133

  KPOINTS         CARTESIAN_X         CARTESIAN_Y         CARTESIAN_Z              WEIGHT
        1                   0                   0                   0          0.00115741
        2            0.916667            0.625463                   0          0.00694444
        3            0.833333            0.673575                   0          0.00694444
        4                0.75            0.721688                   0          0.00694444
        5            0.666667              0.7698                   0          0.00694444
        6            0.583333            0.817913                   0          0.00694444
        7                 0.5            0.866025                   0          0.00347222
        8            0.916667             1.58771                   0          0.00694444
        9            0.916667             1.49149                   0           0.0138889
       10            0.916667             1.39526                   0           0.0138889
       11            0.916667             1.29904                   0           0.0138889
       12            0.916667             1.20281                   0           0.0138889
       13            0.833333             1.44338                   0          0.00694444
       14            0.833333             1.34715                   0           0.0138889
       15            0.833333             1.25093                   0           0.0138889
       16            0.833333              1.1547                   0          0.00694444
       17                0.75             1.29904                   0          0.00694444
       18                0.75             1.20281                   0           0.0138889
       19            0.666667              1.1547                   0          0.00231481
       20                   0                   0             0.57554          0.00231481
       21            0.916667            0.625463             0.57554           0.0138889
       22            0.833333            0.673575             0.57554           0.0138889
       23                0.75            0.721688             0.57554           0.0138889
       24            0.666667              0.7698             0.57554           0.0138889
       25            0.583333            0.817913             0.57554           0.0138889
       26                 0.5            0.866025             0.57554          0.00694444
       27            0.916667             1.58771             0.57554           0.0138889
       28            0.916667             1.49149             0.57554           0.0277778
       29            0.916667             1.39526             0.57554           0.0277778
       30            0.916667             1.29904             0.57554           0.0277778
       31            0.916667             1.20281             0.57554           0.0277778
       32            0.833333             1.44338             0.57554           0.0138889
       33            0.833333             1.34715             0.57554           0.0277778
       34            0.833333             1.25093             0.57554           0.0277778
       35            0.833333              1.1547             0.57554           0.0138889
       36                0.75             1.29904             0.57554           0.0138889
       37                0.75             1.20281             0.57554           0.0277778
       38            0.666667              1.1547             0.57554          0.00462963
       39                   0                   0            0.523218          0.00231481
       40            0.916667            0.625463            0.523218           0.0138889
       41            0.833333            0.673575            0.523218           0.0138889
       42                0.75            0.721688            0.523218           0.0138889
       43            0.666667              0.7698            0.523218           0.0138889
       44            0.583333            0.817913            0.523218           0.0138889
       45                 0.5            0.866025            0.523218          0.00694444
       46            0.916667             1.58771            0.523218           0.0138889
       47            0.916667             1.49149            0.523218           0.0277778
       48            0.916667             1.39526            0.523218           0.0277778
       49            0.916667             1.29904            0.523218           0.0277778
       50            0.916667             1.20281            0.523218           0.0277778
       51            0.833333             1.44338            0.523218           0.0138889
       52            0.833333             1.34715            0.523218           0.0277778
       53            0.833333             1.25093            0.523218           0.0277778
       54            0.833333              1.1547            0.523218           0.0138889
       55                0.75             1.29904            0.523218           0.0138889
       56                0.75             1.20281            0.523218           0.0277778
       57            0.666667              1.1547            0.523218          0.00462963
       58                   0                   0            0.470896          0.00231481
       59            0.916667            0.625463            0.470896           0.0138889
       60            0.833333            0.673575            0.470896           0.0138889
       61                0.75            0.721688            0.470896           0.0138889
       62            0.666667              0.7698            0.470896           0.0138889
       63            0.583333            0.817913            0.470896           0.0138889
       64                 0.5            0.866025            0.470896          0.00694444
       65            0.916667             1.58771            0.470896           0.0138889
       66            0.916667             1.49149            0.470896           0.0277778
       67            0.916667             1.39526            0.470896           0.0277778
       68            0.916667             1.29904            0.470896           0.0277778
       69            0.916667             1.20281            0.470896           0.0277778
       70            0.833333             1.44338            0.470896           0.0138889
       71            0.833333             1.34715            0.470896           0.0277778
       72            0.833333             1.25093            0.470896           0.0277778
       73            0.833333              1.1547            0.470896           0.0138889
       74                0.75             1.29904            0.470896           0.0138889
       75                0.75             1.20281            0.470896           0.0277778
       76            0.666667              1.1547            0.470896          0.00462963
       77                   0                   0            0.418575          0.00231481
       78            0.916667            0.625463            0.418575           0.0138889
       79            0.833333            0.673575            0.418575           0.0138889
       80                0.75            0.721688            0.418575           0.0138889
       81            0.666667              0.7698            0.418575           0.0138889
       82            0.583333            0.817913            0.418575           0.0138889
       83                 0.5            0.866025            0.418575          0.00694444
       84            0.916667             1.58771            0.418575           0.0138889
       85            0.916667             1.49149            0.418575           0.0277778
       86            0.916667             1.39526            0.418575           0.0277778
       87            0.916667             1.29904            0.418575           0.0277778
       88            0.916667             1.20281            0.418575           0.0277778
       89            0.833333             1.44338            0.418575           0.0138889
       90            0.833333             1.34715            0.418575           0.0277778
       91            0.833333             1.25093            0.418575           0.0277778
       92            0.833333              1.1547            0.418575           0.0138889
       93                0.75             1.29904            0.418575           0.0138889
       94                0.75             1.20281            0.418575           0.0277778
       95            0.666667              1.1547            0.418575          0.00462963
       96                   0                   0            0.366253          0.00231481
       97            0.916667            0.625463            0.366253           0.0138889
       98            0.833333            0.673575            0.366253           0.0138889
       99                0.75            0.721688            0.366253           0.0138889
      100            0.666667              0.7698            0.366253           0.0138889
      101            0.583333            0.817913            0.366253           0.0138889
      102                 0.5            0.866025            0.366253          0.00694444
      103            0.916667             1.58771            0.366253           0.0138889
      104            0.916667             1.49149            0.366253           0.0277778
      105            0.916667             1.39526            0.366253           0.0277778
      106            0.916667             1.29904            0.366253           0.0277778
      107            0.916667             1.20281            0.366253           0.0277778
      108            0.833333             1.44338            0.366253           0.0138889
      109            0.833333             1.34715            0.366253           0.0277778
      110            0.833333             1.25093            0.366253           0.0277778
      111            0.833333              1.1547            0.366253           0.0138889
      112                0.75             1.29904            0.366253           0.0138889
      113                0.75             1.20281            0.366253           0.0277778
      114            0.666667              1.1547            0.366253          0.00462963
      115                   0                   0            0.313931          0.00115741
      116            0.916667            0.625463            0.313931          0.00694444
      117            0.833333            0.673575            0.313931          0.00694444
      118                0.75            0.721688            0.313931          0.00694444
      119            0.666667              0.7698            0.313931          0.00694444
      120            0.583333            0.817913            0.313931          0.00694444
      121                 0.5            0.866025            0.313931          0.00347222
      122            0.916667             1.58771            0.313931          0.00694444
      123            0.916667             1.49149            0.313931           0.0138889
      124            0.916667             1.39526            0.313931           0.0138889
      125            0.916667             1.29904            0.313931           0.0138889
      126            0.916667             1.20281            0.313931           0.0138889
      127            0.833333             1.44338            0.313931          0.00694444
      128            0.833333             1.34715            0.313931           0.0138889
      129            0.833333             1.25093            0.313931           0.0138889
      130            0.833333              1.1547            0.313931          0.00694444
      131                0.75             1.29904            0.313931          0.00694444
      132                0.75             1.20281            0.313931           0.0138889
      133            0.666667              1.1547            0.313931          0.00231481

  KPOINTS            DIRECT_X            DIRECT_Y            DIRECT_Z              WEIGHT
        1                   0                   0                   0          0.00115741
        2            0.916667           0.0833333                   0          0.00694444
        3            0.833333            0.166667                   0          0.00694444
        4                0.75                0.25                   0          0.00694444
        5            0.666667            0.333333                   0          0.00694444
        6            0.583333            0.416667                   0          0.00694444
        7                 0.5                 0.5                   0          0.00347222
        8            0.916667            0.916667                   0          0.00694444
        9            0.916667            0.833333                   0           0.0138889
       10            0.916667                0.75                   0           0.0138889
       11            0.916667            0.666667                   0           0.0138889
       12            0.916667            0.583333                   0           0.0138889
       13            0.833333            0.833333                   0          0.00694444
       14            0.833333                0.75                   0           0.0138889
       15            0.833333            0.666667                   0           0.0138889
       16            0.833333            0.583333                   0          0.00694444
       17                0.75                0.75                   0          0.00694444
       18                0.75            0.666667                   0           0.0138889
       19            0.666667            0.666667                   0          0.00231481
       20                   0                   0            0.916667          0.00231481
       21            0.916667           0.0833333            0.916667           0.0138889
       22            0.833333            0.166667            0.916667           0.0138889
       23                0.75                0.25            0.916667           0.0138889
       24            0.666667            0.333333            0.916667           0.0138889
       25            0.583333            0.416667            0.916667           0.0138889
       26                 0.5                 0.5            0.916667          0.00694444
       27            0.916667            0.916667            0.916667           0.0138889
       28            0.916667            0.833333            0.916667           0.0277778
       29            0.916667                0.75            0.916667           0.0277778
       30            0.916667            0.666667            0.916667           0.0277778
       31            0.916667            0.583333            0.916667           0.0277778
       32            0.833333            0.833333            0.916667           0.0138889
       33            0.833333                0.75            0.916667           0.0277778
       34            0.833333            0.666667            0.916667           0.0277778
       35            0.833333            0.583333            0.916667           0.0138889
       36                0.75                0.75            0.916667           0.0138889
       37                0.75            0.666667            0.916667           0.0277778
       38            0.666667            0.666667            0.916667          0.00462963
       39                   0                   0            0.833333          0.00231481
       40            0.916667           0.0833333            0.833333           0.0138889
       41            0.833333            0.166667            0.833333           0.0138889
       42                0.75                0.25            0.833333           0.0138889
       43            0.666667            0.333333            0.833333           0.0138889
       44            0.583333            0.416667            0.833333           0.0138889
       45                 0.5                 0.5            0.833333          0.00694444
       46            0.916667            0.916667            0.833333           0.0138889
       47            0.916667            0.833333            0.833333           0.0277778
       48            0.916667                0.75            0.833333           0.0277778
       49            0.916667            0.666667            0.833333           0.0277778
       50            0.916667            0.583333            0.833333           0.0277778
       51            0.833333            0.833333            0.833333           0.0138889
       52            0.833333                0.75            0.833333           0.0277778
       53            0.833333            0.666667            0.833333           0.0277778
       54            0.833333            0.583333            0.833333           0.0138889
       55                0.75                0.75            0.833333           0.0138889
       56                0.75            0.666667            0.833333           0.0277778
       57            0.666667            0.666667            0.833333          0.00462963
       58                   0                   0                0.75          0.00231481
       59            0.916667           0.0833333                0.75           0.0138889
       60            0.833333            0.166667                0.75           0.0138889
       61                0.75                0.25                0.75           0.0138889
       62            0.666667            0.333333                0.75           0.0138889
       63            0.583333            0.416667                0.75           0.0138889
       64                 0.5                 0.5                0.75          0.00694444
       65            0.916667            0.916667                0.75           0.0138889
       66            0.916667            0.833333                0.75           0.0277778
       67            0.916667                0.75                0.75           0.0277778
       68            0.916667            0.666667                0.75           0.0277778
       69            0.916667            0.583333                0.75           0.0277778
       70            0.833333            0.833333                0.75           0.0138889
       71            0.833333                0.75                0.75           0.0277778
       72            0.833333            0.666667                0.75           0.0277778
       73            0.833333            0.583333                0.75           0.0138889
       74                0.75                0.75                0.75           0.0138889
       75                0.75            0.666667                0.75           0.0277778
       76            0.666667            0.666667                0.75          0.00462963
       77                   0                   0            0.666667          0.00231481
       78            0.916667           0.0833333            0.666667           0.0138889
       79            0.833333            0.166667            0.666667           0.0138889
       80                0.75                0.25            0.666667           0.0138889
       81            0.666667            0.333333            0.666667           0.0138889
       82            0.583333            0.416667            0.666667           0.0138889
       83                 0.5                 0.5            0.666667          0.00694444
       84            0.916667            0.916667            0.666667           0.0138889
       85            0.916667            0.833333            0.666667           0.0277778
       86            0.916667                0.75            0.666667           0.0277778
       87            0.916667            0.666667            0.666667           0.0277778
       88            0.916667            0.583333            0.666667           0.0277778
       89            0.833333            0.833333            0.666667           0.0138889
       90            0.833333                0.75            0.666667           0.0277778
       91            0.833333            0.666667            0.666667           0.0277778
       92            0.833333            0.583333            0.666667           0.0138889
       93                0.75                0.75            0.666667           0.0138889
       94                0.75            0.666667            0.666667           0.0277778
       95            0.666667            0.666667            0.666667          0.00462963
       96                   0                   0            0.583333          0.00231481
       97            0.916667           0.0833333            0.583333           0.0138889
       98            0.833333            0.166667            0.583333           0.0138889
       99                0.75                0.25            0.583333           0.0138889
      100            0.666667            0.333333            0.583333           0.0138889
      101            0.583333            0.416667            0.583333           0.0138889
      102                 0.5                 0.5            0.583333          0.00694444
      103            0.916667            0.916667            0.583333           0.0138889
      104            0.916667            0.833333            0.583333           0.0277778
      105            0.916667                0.75            0.583333           0.0277778
      106            0.916667            0.666667            0.583333           0.0277778
      107            0.916667            0.583333            0.583333           0.0277778
      108            0.833333            0.833333            0.583333           0.0138889
      109            0.833333                0.75            0.583333           0.0277778
      110            0.833333            0.666667            0.583333           0.0277778
      111            0.833333            0.583333            0.583333           0.0138889
      112                0.75                0.75            0.583333           0.0138889
      113                0.75            0.666667            0.583333           0.0277778
      114            0.666667            0.666667            0.583333          0.00462963
      115                   0                   0                 0.5          0.00115741
      116            0.916667           0.0833333                 0.5          0.00694444
      117            0.833333            0.166667                 0.5          0.00694444
      118                0.75                0.25                 0.5          0.00694444
      119            0.666667            0.333333                 0.5          0.00694444
      120            0.583333            0.416667                 0.5          0.00694444
      121                 0.5                 0.5                 0.5          0.00347222
      122            0.916667            0.916667                 0.5          0.00694444
      123            0.916667            0.833333                 0.5           0.0138889
      124            0.916667                0.75                 0.5           0.0138889
      125            0.916667            0.666667                 0.5           0.0138889
      126            0.916667            0.583333                 0.5           0.0138889
      127            0.833333            0.833333                 0.5          0.00694444
      128            0.833333                0.75                 0.5           0.0138889
      129            0.833333            0.666667                 0.5           0.0138889
      130            0.833333            0.583333                 0.5          0.00694444
      131                0.75                0.75                 0.5          0.00694444
      132                0.75            0.666667                 0.5           0.0138889
      133            0.666667            0.666667                 0.5          0.00231481
 DONE : INIT K-POINTS Time : 0.206386 (SEC)





 >>>>>>>>>>>>>>>>>>>>>>>>>>>>>>>>>>>>>>>>>>>>>>>>>>>>>>>>>>>>>>>>>>>>>>
 |                                                                    |
 | Setup plane waves:                                                 |
 | Use the energy cutoff and the lattice vectors to generate the      |
 | dimensions of FFT grid. The number of FFT grid on each processor   |
 | is 'nrxx'. The number of plane wave basis in reciprocal space is   |
 | different for charege/potential and wave functions. We also set    |
 | the 'sticks' for the parallel of FFT.                              |
 |                                                                    |
 <<<<<<<<<<<<<<<<<<<<<<<<<<<<<<<<<<<<<<<<<<<<<<<<<<<<<<<<<<<<<<<<<<<<<<





 SETUP THE PLANE WAVE BASIS
     energy cutoff for wavefunc (unit:Ry) = 75
            [fft grid for wave functions] = 30, 30, 45
          [fft grid for charge/potential] = 30, 30, 45
                      [fft grid division] = 1, 1, 1
      [big fft grid for charge/potential] = 30, 30, 45
                                     nbxx = 40500
                                     nrxx = 40500

 SETUP PLANE WAVES FOR CHARGE/POTENTIAL
                    number of plane waves = 12947
                         number of sticks = 463

 SETUP PLANE WAVES FOR WAVE FUNCTIONS
                    number of plane waves = 3513
                         number of sticks = 199

 PARALLEL PW FOR CHARGE/POTENTIAL
     PROC   COLUMNS(POT)             PW
        1            463          12947
 --------------- sum -------------------
        1            463          12947

 PARALLEL PW FOR WAVE FUNCTIONS
     PROC     COLUMNS(W)             PW
        1            199           3513
 --------------- sum -------------------
        1            199           3513

 SETUP COORDINATES OF PLANE WAVES
              number of total plane waves = 12947

 SETUP COORDINATES OF PLANE WAVES
                            number of |g| = 689
                                  max |g| = 170.91
                                  min |g| = 0
 DONE : INIT PLANEWAVE Time : 0.332102 (SEC)

                                     npwx = 1641

 SETUP NONLOCAL PSEUDOPOTENTIALS IN PLANE WAVE BASIS
 Si non-local projectors:
      TOTAL NUMBER OF NONLOCAL PROJECTORS = 0

 nhm = 0, not allocate some matrix. DONE : LOCAL POTENTIAL Time : 0.517535 (SEC)


 Init Non-Local PseudoPotential table : 
 Init Non-Local-Pseudopotential done.
 DONE : NON-LOCAL POTENTIAL Time : 0.517793 (SEC)

                                start_pot = atomic
 DONE : INIT POTENTIAL Time : 0.617907 (SEC)


 Make real space PAO into reciprocal space.
       max mesh points in Pseudopotential = 1601
     dq(describe PAO in reciprocal space) = 0.01
                                    max q = 1045

 number of pseudo atomic orbitals for Si is 0
 DONE : INIT BASIS Time : 7.48255 (SEC)


 -------------------------------------------
 SELF-CONSISTENT
 -------------------------------------------

 PW ALGORITHM --------------- ION=   1  ELEC=   1--------------------------------
  K-point    CG iter num      Time(Sec)
        1       7.916667       0.415518
        2       8.416667       0.428668
        3       7.000000       0.360180
        4       7.416667       0.364346
        5       6.833333       0.352152
        6       7.166667       0.354681
        7       6.833333       0.330800
        8       7.000000       0.328827
        9       7.583333       0.313864
       10       6.666667       0.300381
       11       7.000000       0.338425
       12       7.166667       0.356203
       13       7.250000       0.354199
       14       7.333333       0.351468
       15       6.833333       0.327545
       16       7.250000       0.335880
       17       6.666667       0.299728
       18       7.916667       0.349307
       19       6.000000       0.271348
       20       8.000000       0.347645
       21       7.916667       0.338020
       22       8.000000       0.363815
       23       8.000000       0.360111
       24       6.500000       0.322914
       25       7.333333       0.344742
       26       7.166667       0.341117
       27       7.583333       0.366026
       28       8.166667       0.382104
       29       8.333333       0.354562
       30       7.666667       0.350952
       31       7.583333       0.378197
       32       7.416667       0.385747
       33       7.333333       0.349458
       34       7.250000       0.363016
       35       8.250000       0.434513
       36       6.833333       0.387903
       37       7.583333       0.408394
       38       6.750000       0.376081
       39       8.083333       0.456521
       40       8.583333       0.465466
       41       8.166667       0.451995
       42       8.000000       0.440730
       43       7.416667       0.397344
       44       7.750000       0.415545
       45       7.416667       0.252087
       46       7.250000       0.278646
       47       7.416667       0.282992
       48       7.666667       0.399909
       49       6.750000       0.387939
       50       7.583333       0.429836
       51       7.666667       0.432815
       52       7.500000       0.425100
       53       8.250000       0.470892
       54       7.416667       0.426451
       55       7.000000       0.404067
       56       8.666667       0.484980
       57       6.583333       0.383296
       58       8.333333       0.503689
       59       8.000000       0.461933
       60       7.416667       0.432233
       61       7.000000       0.415015
       62       7.666667       0.380743
       63       8.333333       0.420744
       64       6.833333       0.393764
       65       8.416667       0.469652
       66       7.750000       0.428934
       67       8.000000       0.453784
       68       7.583333       0.437589
       69       8.000000       0.469309
       70       7.583333       0.419156
       71       7.833333       0.407618
       72       7.750000       0.388817
       73       7.166667       0.378010
       74       7.750000       0.391008
       75       7.166667       0.277438
       76       6.500000       0.328868
       77       7.750000       0.372272
       78       8.583333       0.436407
       79       7.833333       0.413080
       80       7.333333       0.366543
       81       7.583333       0.388506
       82       7.500000       0.367484
       83       7.000000       0.353172
       84       6.833333       0.356326
       85       7.416667       0.367968
       86       8.166667       0.405598
       87       7.250000       0.355115
       88       8.000000       0.408539
       89       7.250000       0.378311
       90       7.833333       0.405899
       91       8.500000       0.447385
       92       7.916667       0.430090
       93       7.416667       0.395068
       94       7.833333       0.421727
       95       6.583333       0.365288
       96       7.500000       0.365460
       97       8.166667       0.481847
       98       7.833333       0.432791
       99       7.916667       0.310060
      100       7.666667       0.321692
      101       7.583333       0.309504
      102       6.833333       0.290335
      103       7.916667       0.436236
      104       7.833333       0.513163
      105       8.000000       0.525226
      106       7.583333       0.469804
      107       7.666667       0.463764
      108       8.333333       0.501130
      109       8.500000       0.523310
      110       7.833333       0.505546
      111       7.166667       0.470016
      112       7.333333       0.485611
      113       8.250000       0.376575
      114       6.916667       0.444040
      115       7.250000       0.508379
      116       7.583333       0.491412
      117       7.750000       0.492972
      118       7.500000       0.507769
      119       6.833333       0.492107
      120       6.333333       0.461272
      121       6.833333       0.289984
      122       6.583333       0.230957
      123       7.416667       0.415706
      124       6.833333       0.477767
      125       7.250000       0.533215
      126       7.500000       0.542543
      127       6.916667       0.504921
      128       7.166667       0.508696
      129       7.833333       0.551445
      130       6.166667       0.451481
      131       6.333333       0.453723
      132       7.833333       0.572055
      133       6.166667       0.455925

 Density error is 0.257989387837
                          Error Threshold = 0.010000000000

       Energy                       Rydberg                            eV
   E_KohnSham              -15.983815450185             -217.470965902950
     E_Harris              -16.048666190240             -218.353305487211
      E_Fermi               +1.105794050383              +15.045099899714

 PW ALGORITHM --------------- ION=   1  ELEC=   2--------------------------------
  K-point    CG iter num      Time(Sec)
        1       3.083333       0.227837
        2       2.416667       0.187339
        3       2.500000       0.187348
        4       2.000000       0.159346
        5       2.000000       0.168692
        6       2.000000       0.167656
        7       2.000000       0.163545
        8       2.083333       0.168447
        9       2.333333       0.178955
       10       2.583333       0.189677
       11       2.000000       0.161334
       12       2.000000       0.155359
       13       2.000000       0.154231
       14       2.333333       0.169783
       15       2.333333       0.168636
       16       2.000000       0.159827
       17       2.416667       0.183796
       18       2.250000       0.175926
       19       2.000000       0.152222
       20       2.500000       0.197581
       21       2.166667       0.164077
       22       2.666667       0.197158
       23       2.083333       0.163425
       24       2.000000       0.162711
       25       2.000000       0.161194
       26       2.000000       0.158718
       27       2.000000       0.174840
       28       2.250000       0.181689
       29       2.250000       0.183324
       30       2.166667       0.188401
       31       2.000000       0.162900
       32       2.000000       0.171053
       33       2.000000       0.163282
       34       2.250000       0.175201
       35       2.000000       0.152641
       36       2.000000       0.135339
       37       2.250000       0.099001
       38       2.000000       0.080072
       39       2.166667       0.107818
       40       2.250000       0.162031
       41       2.000000       0.146586
       42       2.000000       0.155226
       43       2.166667       0.155143
       44       2.083333       0.145823
       45       2.000000       0.142127
       46       2.250000       0.166319
       47       2.166667       0.137892
       48       2.000000       0.181030
       49       2.000000       0.125880
       50       2.000000       0.130560
       51       2.000000       0.153454
       52       2.000000       0.151262
       53       2.000000       0.151127
       54       2.000000       0.151024
       55       2.000000       0.149944
       56       2.000000       0.153398
       57       2.833333       0.138517
       58       2.416667       0.122426
       59       2.083333       0.104880
       60       2.000000       0.099552
       61       2.083333       0.110072
       62       2.166667       0.111204
       63       2.333333       0.142387
       64       2.000000       0.149483
       65       2.083333       0.149012
       66       2.250000       0.164916
       67       2.000000       0.151925
       68       2.000000       0.156462
       69       2.166667       0.159660
       70       2.000000       0.152298
       71       2.000000       0.149143
       72       2.000000       0.150600
       73       2.083333       0.161668
       74       2.000000       0.160395
       75       2.083333       0.149181
       76       2.000000       0.129322
       77       2.333333       0.129768
       78       2.333333       0.122647
       79       2.000000       0.108158
       80       2.000000       0.128270
       81       2.083333       0.149712
       82       2.000000       0.156297
       83       2.000000       0.144742
       84       2.000000       0.142501
       85       2.000000       0.144360
       86       2.166667       0.151761
       87       2.083333       0.142486
       88       2.333333       0.158902
       89       2.000000       0.149326
       90       2.000000       0.169238
       91       2.083333       0.160957
       92       2.000000       0.160608
       93       2.166667       0.159607
       94       2.250000       0.172674
       95       2.000000       0.158773
       96       2.000000       0.142290
       97       2.416667       0.158868
       98       2.250000       0.147772
       99       2.000000       0.137104
      100       2.000000       0.158278
      101       2.000000       0.155417
      102       2.000000       0.157014
      103       2.000000       0.155515
      104       2.250000       0.170251
      105       2.250000       0.171097
      106       2.000000       0.153364
      107       2.000000       0.152181
      108       2.250000       0.151982
      109       2.083333       0.148475
      110       2.500000       0.164984
      111       2.583333       0.169024
      112       2.000000       0.141288
      113       2.083333       0.146098
      114       2.000000       0.144418
      115       2.333333       0.156781
      116       2.000000       0.149631
      117       2.166667       0.148735
      118       2.000000       0.140458
      119       2.000000       0.143487
      120       2.000000       0.139889
      121       2.000000       0.141281
      122       2.000000       0.145889
      123       2.083333       0.182250
      124       2.000000       0.179883
      125       2.000000       0.188204
      126       2.000000       0.153281
      127       2.000000       0.127318
      128       2.000000       0.118503
      129       2.000000       0.128863
      130       2.000000       0.133026
      131       2.166667       0.150716
      132       2.083333       0.132449
      133       2.000000       0.122578

 Density error is 0.018778480213
                          Error Threshold = 0.003224867348

       Energy                       Rydberg                            eV
   E_KohnSham              -16.012575521587             -217.862266748905
     E_Harris              -16.000787436268             -217.701881620051
      E_Fermi               +1.094524347060              +14.891767719739

 PW ALGORITHM --------------- ION=   1  ELEC=   3--------------------------------
  K-point    CG iter num      Time(Sec)
        1       3.750000       0.176073
        2       5.750000       0.219335
        3       6.583333       0.402121
        4       3.333333       0.181757
        5       2.916667       0.167797
        6       2.916667       0.183502
        7       2.583333       0.164413
        8       4.250000       0.244253
        9       3.750000       0.214299
       10       3.250000       0.187588
       11       2.916667       0.179333
       12       2.583333       0.161090
       13       3.416667       0.208250
       14       3.083333       0.189119
       15       3.250000       0.199851
       16       2.833333       0.170222
       17       2.833333       0.178003
       18       3.333333       0.200442
       19       2.750000       0.177448
       20       4.250000       0.241387
       21       4.083333       0.240343
       22       3.833333       0.226590
       23       3.166667       0.197355
       24       3.166667       0.192507
       25       2.916667       0.180305
       26       2.750000       0.167124
       27       3.333333       0.200379
       28       3.166667       0.197747
       29       3.333333       0.202833
       30       3.000000       0.187561
       31       2.916667       0.177686
       32       3.000000       0.204153
       33       2.750000       0.182207
       34       3.166667       0.195551
       35       3.000000       0.178497
       36       2.750000       0.175839
       37       2.916667       0.187806
       38       3.000000       0.193289
       39       3.916667       0.232888
       40       4.000000       0.229038
       41       3.416667       0.209012
       42       3.250000       0.205505
       43       3.000000       0.191131
       44       3.000000       0.190797
       45       2.666667       0.174636
       46       3.666667       0.228707
       47       3.583333       0.221871
       48       3.083333       0.189179
       49       2.666667       0.165440
       50       2.750000       0.172868
       51       2.750000       0.178865
       52       3.250000       0.193312
       53       2.750000       0.160446
       54       3.500000       0.210915
       55       2.833333       0.168379
       56       3.083333       0.199888
       57       3.000000       0.191341
       58       4.416667       0.243314
       59       3.583333       0.213215
       60       3.250000       0.184654
       61       3.166667       0.176355
       62       3.083333       0.175064
       63       3.000000       0.175506
       64       3.166667       0.181799
       65       3.500000       0.203303
       66       4.000000       0.215942
       67       2.833333       0.159348
       68       2.750000       0.160495
       69       2.750000       0.163011
       70       3.166667       0.181836
       71       3.250000       0.188025
       72       2.750000       0.167701
       73       3.166667       0.178279
       74       2.750000       0.161727
       75       3.000000       0.174554
       76       2.833333       0.175725
       77       5.666667       0.308108
       78       4.333333       0.236647
       79       3.416667       0.186684
       80       3.250000       0.181467
       81       2.833333       0.155041
       82       2.833333       0.171488
       83       2.833333       0.147621
       84       3.166667       0.173536
       85       3.333333       0.191010
       86       3.083333       0.156462
       87       3.250000       0.149326
       88       2.916667       0.157242
       89       3.250000       0.176758
       90       2.916667       0.150758
       91       3.500000       0.132073
       92       3.416667       0.153497
       93       3.416667       0.170732
       94       3.250000       0.140657
       95       2.833333       0.122642
       96       5.583333       0.209629
       97       3.666667       0.255579
       98       3.333333       0.175023
       99       3.333333       0.156388
      100       2.916667       0.116447
      101       2.750000       0.113415
      102       2.666667       0.113066
      103       3.000000       0.123239
      104       3.500000       0.137300
      105       3.083333       0.118397
      106       3.000000       0.145102
      107       2.916667       0.169490
      108       3.500000       0.198045
      109       3.416667       0.183713
      110       2.916667       0.150199
      111       2.833333       0.166484
      112       4.750000       0.275114
      113       3.250000       0.205745
      114       2.583333       0.168790
      115       3.916667       0.235777
      116       3.583333       0.205032
      117       2.916667       0.178409
      118       3.083333       0.184179
      119       2.333333       0.149999
      120       2.583333       0.152571
      121       2.250000       0.135873
      122       3.000000       0.191090
      123       3.000000       0.184995
      124       2.833333       0.166650
      125       2.833333       0.185940
      126       2.500000       0.155313
      127       3.250000       0.150410
      128       3.333333       0.157690
      129       2.750000       0.132509
      130       3.000000       0.140878
      131       2.916667       0.133542
      132       3.000000       0.137536
      133       2.500000       0.115038

 Density error is 0.000145430320
                          Error Threshold = 0.000234731003

       Energy                       Rydberg                            eV
   E_KohnSham              -16.014185838660             -217.884176236680
     E_Harris              -16.014206191063             -217.884453145337
      E_Fermi               +1.094166070211              +14.886893113138

 PW ALGORITHM --------------- ION=   1  ELEC=   4--------------------------------
  K-point    CG iter num      Time(Sec)
        1       6.666667       0.258397
        2       5.833333       0.213160
        3       6.750000       0.263051
        4       4.333333       0.178021
        5       4.083333       0.167214
        6       3.583333       0.150535
        7       3.500000       0.151867
        8       4.750000       0.193411
[...]
      11      27.370794       0.000000
      12      30.913161       0.000000

 102/133 kpoint (Cartesian) = 0.500000 0.866025 0.366253 (1614 pws)
       1       5.632041       0.006944
       2       6.256053       0.006944
       3       7.282122       0.006944
       4       7.909002       0.006944
       5      20.517111       0.000000
       6      22.063044       0.000000
       7      22.499130       0.000000
       8      22.554374       0.000000
       9      22.901257       0.000000
      10      25.449953       0.000000
      11      27.669046       0.000000
      12      28.894155       0.000000

 103/133 kpoint (Cartesian) = 0.916667 1.587713 0.366253 (1622 pws)
       1      -1.223383       0.013889
       2       0.329595       0.013889
       3      15.748722       0.000000
       4      20.174753       0.000000
       5      21.877754       0.000000
       6      22.741780       0.000000
       7      23.420046       0.000000
       8      24.158025       0.000000
       9      29.926787       0.000000
      10      30.377001       0.000000
      11      32.048405       0.000000
      12      32.348307       0.000000

 104/133 kpoint (Cartesian) = 0.916667 1.491488 0.366253 (1621 pws)
       1      -0.349493       0.027778
       2       1.202509       0.027778
       3      16.512413       0.000000
       4      17.876272       0.000000
       5      19.539694       0.000000
       6      20.238840       0.000000
       7      21.647592       0.000000
       8      22.180234       0.000000
       9      28.746498       0.000000
      10      30.102073       0.000000
      11      33.856910       0.000000
      12      34.542823       0.000000

 105/133 kpoint (Cartesian) = 0.916667 1.395263 0.366253 (1622 pws)
       1       0.959775       0.027778
       2       2.509899       0.027778
       3      14.029670       0.027778
       4      15.480527       0.000000
       5      17.987853       0.000000
       6      19.159153       0.000000
       7      20.890368       0.000000
       8      22.620712       0.000000
       9      27.532735       0.000000
      10      28.782577       0.000000
      11      31.564262       0.000000
      12      35.371734       0.000000

 106/133 kpoint (Cartesian) = 0.916667 1.299038 0.366253 (1607 pws)
       1       2.700521       0.027778
       2       4.246241       0.027778
       3      10.588156       0.027778
       4      12.111242       0.027778
       5      18.291485       0.000000
       6      19.254958       0.000000
       7      20.384677       0.000000
       8      24.040195       0.000000
       9      26.616238       0.000000
      10      27.378943       0.000000
      11      29.066200       0.000000
      12      32.481691       0.000000

 107/133 kpoint (Cartesian) = 0.916667 1.202813 0.366253 (1607 pws)
       1       4.847347       0.027778
       2       6.350988       0.027778
       3       7.622070       0.027778
       4       9.120777       0.027778
       5      17.876700       0.000000
       6      19.312760       0.000000
       7      21.889519       0.000000
       8      24.185898       0.000000
       9      25.690115       0.000000
      10      27.088015       0.000000
      11      28.272999       0.000000
      12      29.858563       0.000000

 108/133 kpoint (Cartesian) = 0.833333 1.443376 0.366253 (1622 pws)
       1       0.741810       0.013889
       2       2.292337       0.013889
       3      16.075774       0.000000
       4      16.696686       0.000000
       5      17.191976       0.000000
       6      17.652187       0.000000
       7      19.018476       0.000000
       8      22.455277       0.000000
       9      31.855787       0.000000
      10      32.185995       0.000000
      11      32.376086       0.000000
      12      33.905808       0.000000

 109/133 kpoint (Cartesian) = 0.833333 1.347151 0.366253 (1616 pws)
       1       2.266764       0.027778
       2       3.814339       0.027778
       3      12.717571       0.027778
       4      14.215873       0.027778
       5      15.400589       0.000000
       6      16.804337       0.000000
       7      19.544741       0.000000
       8      23.825204       0.000000
       9      29.769427       0.000000
      10      31.113087       0.000000
      11      32.151631       0.000000
      12      33.354404       0.000000

 110/133 kpoint (Cartesian) = 0.833333 1.250926 0.366253 (1607 pws)
       1       4.216856       0.027778
       2       5.754771       0.027778
       3       9.508469       0.027778
       4      11.032133       0.027778
       5      14.731962       0.027368
       6      16.221357       0.000000
       7      21.311475       0.000000
       8      25.133407       0.000000
       9      27.281812       0.000000
      10      30.063455       0.000000
      11      31.381725       0.000000
      12      32.057912       0.000000

 111/133 kpoint (Cartesian) = 0.833333 1.154701 0.366253 (1610 pws)
       1       6.283328       0.013889
       2       6.898910       0.013889
       3       7.931622       0.013889
       4       8.551354       0.013889
       5      14.512716       0.013889
       6      16.015986       0.000000
       7      23.146287       0.000000
       8      23.956828       0.000000
       9      27.968158       0.000000
      10      28.558134       0.000000
      11      31.080470       0.000000
      12      31.359019       0.000000

 112/133 kpoint (Cartesian) = 0.750000 1.299038 0.366253 (1611 pws)
       1       4.003399       0.013889
       2       5.545022       0.013889
       3      11.555335       0.013889
       4      12.209868       0.013889
       5      13.140384       0.013889
       6      13.759335       0.013889
       7      21.109041       0.000000
       8      25.249983       0.000000
       9      28.970847       0.000000
      10      29.470475       0.000000
      11      32.961547       0.000000
      12      34.346449       0.000000

 113/133 kpoint (Cartesian) = 0.750000 1.202813 0.366253 (1611 pws)
       1       6.142731       0.027778
       2       7.633532       0.027778
       3       8.894684       0.027778
       4      10.367081       0.027778
       5      11.558923       0.027778
       6      13.060517       0.027778
       7      23.106721       0.000000
       8      25.373261       0.000000
       9      27.836753       0.000000
      10      29.202731       0.000000
      11      30.910901       0.000000
      12      33.385884       0.000000

 114/133 kpoint (Cartesian) = 0.666667 1.154701 0.366253 (1599 pws)
       1       8.187992       0.004630
       2       8.188701       0.004630
       3       9.305734       0.004630
       4       9.928715       0.004630
       5       9.929289       0.004630
       6      10.836874       0.004630
       7      24.881000       0.000000
       8      24.881009       0.000000
       9      26.767504       0.000000
      10      30.419777       0.000000
      11      30.419857       0.000000
      12      31.410339       0.000000

 115/133 kpoint (Cartesian) = 0.000000 0.000000 0.313931 (1640 pws)
       1      -1.167764       0.001157
       2      -1.166306       0.001157
       3      17.357225       0.000000
       4      17.357247       0.000000
       5      28.147962       0.000000
       6      28.147962       0.000000
       7      28.149564       0.000000
       8      28.149564       0.000000
       9      30.254265       0.000000
      10      30.254265       0.000000
      11      30.255884       0.000000
      12      30.255885       0.000000

 116/133 kpoint (Cartesian) = 0.916667 0.625463 0.313931 (1622 pws)
       1      -0.949206       0.006944
       2      -0.947748       0.006944
       3      17.558548       0.000000
       4      17.558563       0.000000
       5      24.950615       0.000000
       6      24.952114       0.000000
       7      26.578141       0.000000
       8      26.579750       0.000000
       9      29.007263       0.000000
      10      29.008746       0.000000
      11      32.259656       0.000000
      12      32.261266       0.000000

 117/133 kpoint (Cartesian) = 0.833333 0.673575 0.313931 (1620 pws)
       1      -0.293774       0.006944
       2      -0.292316       0.006944
       3      18.107053       0.000000
       4      18.107118       0.000000
       5      20.699626       0.000000
       6      20.701029       0.000000
       7      24.693953       0.000000
       8      24.695564       0.000000
       9      27.308833       0.000000
      10      27.310220       0.000000
      11      35.444815       0.000000
      12      35.446411       0.000000

 118/133 kpoint (Cartesian) = 0.750000 0.721688 0.313931 (1626 pws)
       1       0.797644       0.006944
       2       0.799102       0.006944
       3      16.397797       0.000000
       4      16.399231       0.000000
       5      19.387636       0.000000
       6      19.387678       0.000000
       7      23.184800       0.000000
       8      23.186412       0.000000
       9      25.888142       0.000000
      10      25.889471       0.000000
      11      35.147641       0.000000
      12      35.147649       0.000000

 119/133 kpoint (Cartesian) = 0.666667 0.769800 0.313931 (1614 pws)
       1       2.322628       0.006944
       2       2.324086       0.006944
       3      12.796476       0.006944
       4      12.797948       0.006944
       5      20.728364       0.000000
       6      20.728414       0.000000
       7      22.098138       0.000000
       8      22.099750       0.000000
       9      24.866735       0.000000
      10      24.867989       0.000000
      11      31.732686       0.000000
      12      31.732733       0.000000

 120/133 kpoint (Cartesian) = 0.583333 0.817913 0.313931 (1608 pws)
       1       4.271342       0.006944
       2       4.272797       0.006944
       3       9.568118       0.006944
       4       9.569593       0.006944
       5      21.444089       0.000000
       6      21.445702       0.000000
       7      22.321887       0.000000
       8      22.322168       0.000000
       9      24.333467       0.000000
      10      24.334455       0.000000
      11      28.784906       0.000000
      12      28.784941       0.000000

 121/133 kpoint (Cartesian) = 0.500000 0.866025 0.313931 (1604 pws)
       1       6.276778       0.003472
       2       6.278194       0.003472
       3       7.133962       0.003472
       4       7.135476       0.003472
       5      21.225812       0.000000
       6      21.227425       0.000000
       7      23.167959       0.000000
       8      23.168911       0.000000
       9      24.448926       0.000000
      10      24.449172       0.000000
      11      27.190683       0.000000
      12      27.190713       0.000000

 122/133 kpoint (Cartesian) = 0.916667 1.587713 0.313931 (1612 pws)
       1      -0.512207       0.006944
       2      -0.510749       0.006944
       3      17.946043       0.000000
       4      17.946054       0.000000
       5      22.568759       0.000000
       6      22.570196       0.000000
       7      23.363801       0.000000
       8      23.365363       0.000000
       9      30.368865       0.000000
      10      30.370452       0.000000
      11      31.873521       0.000000
      12      31.874882       0.000000

 123/133 kpoint (Cartesian) = 0.916667 1.491488 0.313931 (1624 pws)
       1       0.361261       0.013889
       2       0.362719       0.013889
       3      18.187880       0.000000
       4      18.188772       0.000000
       5      19.202950       0.000000
       6      19.203607       0.000000
       7      21.427683       0.000000
       8      21.429118       0.000000
       9      29.380764       0.000000
      10      29.382232       0.000000
      11      34.434130       0.000000
      12      34.435478       0.000000

 124/133 kpoint (Cartesian) = 0.916667 1.395263 0.313931 (1622 pws)
       1       1.669731       0.013889
       2       1.671188       0.013889
       3      14.717669       0.013768
       4      14.719134       0.013761
       5      19.486414       0.000000
       6      19.487381       0.000000
       7      20.714840       0.000000
       8      20.715384       0.000000
       9      28.141249       0.000000
      10      28.142665       0.000000
      11      33.513075       0.000000
      12      33.513086       0.000000

 125/133 kpoint (Cartesian) = 0.916667 1.299038 0.313931 (1614 pws)
       1       3.408715       0.013889
       2       3.410172       0.013889
       3      11.287928       0.013889
       4      11.289401       0.013889
       5      18.950335       0.000000
       6      18.951806       0.000000
       7      21.998360       0.000000
       8      21.998404       0.000000
       9      27.191988       0.000000
      10      27.193314       0.000000
      11      30.406743       0.000000
      12      30.406762       0.000000

 126/133 kpoint (Cartesian) = 0.916667 1.202813 0.313931 (1612 pws)
       1       5.546054       0.013889
       2       5.547503       0.013889
       3       8.295917       0.013889
       4       8.297397       0.013889
       5      18.557853       0.000000
       6      18.559358       0.000000
       7      23.809681       0.000000
       8      23.809713       0.000000
       9      26.215185       0.000000
      10      26.216078       0.000000
      11      28.277365       0.000000
      12      28.277778       0.000000

 127/133 kpoint (Cartesian) = 0.833333 1.443376 0.313931 (1622 pws)
       1       1.451933       0.006944
       2       1.453391       0.006944
       3      16.780842       0.000000
       4      16.782258       0.000000
       5      17.300024       0.000000
       6      17.301470       0.000000
       7      20.288420       0.000000
       8      20.288513       0.000000
       9      32.211048       0.000000
      10      32.212522       0.000000
      11      33.301740       0.000000
      12      33.302874       0.000000

 128/133 kpoint (Cartesian) = 0.833333 1.347151 0.313931 (1612 pws)
       1       2.975660       0.013889
       2       2.977117       0.013889
       3      13.412241       0.013889
       4      13.413702       0.013889
       5      16.069485       0.000000
       6      16.070981       0.000000
       7      21.617540       0.000000
       8      21.617552       0.000000
       9      31.182365       0.000000
      10      31.183158       0.000000
      11      32.717869       0.000000
      12      32.718505       0.000000

 129/133 kpoint (Cartesian) = 0.833333 1.250926 0.313931 (1612 pws)
       1       4.922293       0.013889
       2       4.923747       0.013889
       3      10.206369       0.013889
       4      10.207840       0.013889
       5      15.421556       0.000000
       6      15.423055       0.000000
       7      23.397328       0.000000
       8      23.397347       0.000000
       9      28.804637       0.000000
      10      28.804772       0.000000
      11      31.586890       0.000000
      12      31.588069       0.000000

 130/133 kpoint (Cartesian) = 0.833333 1.154701 0.313931 (1610 pws)
       1       6.925478       0.006944
       2       6.926895       0.006944
       3       7.778702       0.006944
       4       7.780212       0.006944
       5      15.205894       0.000000
       6      15.207392       0.000000
       7      24.839548       0.000000
       8      24.839560       0.000000
       9      27.034162       0.000000
      10      27.034203       0.000000
      11      31.304111       0.000000
      12      31.305360       0.000000

 131/133 kpoint (Cartesian) = 0.750000 1.299038 0.313931 (1616 pws)
       1       4.709975       0.006944
       2       4.711431       0.006944
       3      12.227927       0.006944
       4      12.229333       0.006944
       5      12.982839       0.006944
       6      12.984399       0.006944
       7      23.228098       0.000000
       8      23.228125       0.000000
       9      30.496926       0.000000
      10      30.496953       0.000000
      11      32.237015       0.000000
      12      32.237062       0.000000

 132/133 kpoint (Cartesian) = 0.750000 1.202813 0.313931 (1608 pws)
       1       6.837736       0.013889
       2       6.839183       0.013889
       3       9.558801       0.013889
       4       9.560265       0.013889
       5      12.242056       0.013889
       6      12.243567       0.013889
       7      25.031322       0.000000
       8      25.031336       0.000000
       9      28.487176       0.000000
      10      28.487219       0.000000
      11      31.259881       0.000000
      12      31.259922       0.000000

 133/133 kpoint (Cartesian) = 0.666667 1.154701 0.313931 (1596 pws)
       1       8.590650       0.002315
       2       8.592090       0.002315
       3       9.398134       0.002315
       4       9.399439       0.002315
       5      10.008532       0.002315
       6      10.010208       0.002315
       7      26.014406       0.000000
       8      26.014418       0.000000
       9      29.022667       0.000000
      10      29.022916       0.000000
      11      29.177319       0.000000
      12      29.177416       0.000000



 --------------------------------------------
 !FINAL_ETOT_IS -217.8858305569831089 eV
 --------------------------------------------






  |CLASS_NAME---------|NAME---------------|TIME(Sec)-----|CALLS----|AVG------|PER%-------
                                      total        197.514        17     11.62    100.00%
                 Run_pw     plane_wave_line         197.48         1    197.48     99.98%
               PW_Basis              gen_pw           0.13         1      0.13      0.06%
                Cell_PW        opt_cells_pw         197.16         1    197.16     99.82%
              Potential            init_pot           0.10         1      0.10      0.05%
                    FFT               FFT3D         140.97    105214      0.00     71.37%
              Potential            v_of_rho           0.14         7      0.02      0.07%
               wavefunc             wfcinit           6.86         1      6.86      3.48%
                 WF_igk                ekin           0.12       931      0.00      0.06%
              Hamilt_PW      diagH_subspace          31.70       798      0.04     16.05%
              Hamilt_PW               h_psi         160.82     39027      0.00     81.42%
              Hamilt_PW                vloc         159.45     39027      0.00     80.73%
                 Hamilt        diagH_LAPACK           0.35       798      0.00      0.18%
                   Ions         opt_ions_pw         190.02         1    190.02     96.20%
              Electrons     self_consistent         190.02         1    190.02     96.20%
              Electrons             c_bands         115.01         3     38.34     58.23%
                 Hamilt            diagH_pw         171.74       798      0.22     86.95%
               Diago_CG                diag         145.44       798      0.18     73.64%
              electrons             c_bands          75.70         3     25.23     38.33%
                 Charge            sum_band          16.84         6      2.81      8.53%
                 Charge             mix_rho           0.16         6      0.03      0.08%
 ----------------------------------------------------------------------------------------

 CLASS_NAME---------|NAME---------------|MEMORY(MB)--------
                                         51.8981
             wavefunc                 evc        39.9633
         Charge_Pulay                Rrho         2.4719
         Charge_Pulay               dRrho         2.1629
         Charge_Pulay                drho         2.1629
 ----------------------------------------------------------

 Start  Time  : Fri Sep 10 11:34:50 2021
 Finish Time  : Fri Sep 10 11:38:07 2021
 Total  Time  : 0 h 3 mins 17 secs 
