 *********************************************************
 *                                                       *
 *                  WELCOME TO ABACUS v3.0               *
 *                                                       *
 *            'Atomic-orbital Based Ab-initio            *
 *                  Computation at UStc'                 *
 *                                                       *
 *          Website: http://abacus.ustc.edu.cn/          *
 *                                                       *
 *********************************************************
 Tue May  2 12:46:29 2023
 MAKE THE DIR         : OUT.blpstest/
Notice: symbol 'al_locpsp' is not an element symbol!!!! set the covalent radius to be 0.
 UNIFORM GRID DIM     : 27 * 27 * 27
 UNIFORM GRID DIM(BIG): 27 * 27 * 27
func,idXC_GGA_X_PBE 101
func,idXC_GGA_C_PBE 130
 DONE(0.109659   SEC) : SETUP UNITCELL
 DONE(0.163949   SEC) : SYMMETRY
 DONE(0.521755   SEC) : INIT K-POINTS
 ---------------------------------------------------------
 Self-consistent calculations for electrons
 ---------------------------------------------------------
 SPIN    KPOINTS         PROCESSORS  
 1       256             1           
 ---------------------------------------------------------
 Use plane wave basis
 ---------------------------------------------------------
 ELEMENT NATOM       XC          
 Al      1           
 ---------------------------------------------------------
 Initial plane wave basis and FFT box
 ---------------------------------------------------------
 DONE(0.522738   SEC) : INIT BASIS
 DONE(0.522764   SEC) : INIT PHI
 DONE(0.562404   SEC) : LOCAL POTENTIAL
 DONE(0.562439   SEC) : NON-LOCAL POTENTIAL
 START CHARGE      : atomic
 DONE(0.635125   SEC) : INIT POTENTIAL
 DONE(0.635188   SEC) : INIT OPTIMIZATION
Default type: double
 DONE(0.636121   SEC) : INIT KEDF
======================== Running OFDFT ========================
Iter        Etot(Ha)          Theta      PotNorm     deltaE(Ha)
0     -2.022534879872e+00   2.000e-01   1.938e-01   -2.023e+00  
1     -2.047866254707e+00   6.594e-02   2.886e-01   -2.533e-02  
2     -2.104231938857e+00   7.260e-02   9.698e-02   -5.637e-02  
3     -2.105657176621e+00   8.862e-03   1.373e-02   -1.425e-03  
4     -2.105700628503e+00   1.658e-03   4.717e-03   -4.345e-05  
5     -2.105711386744e+00   1.442e-03   5.188e-04   -1.076e-05  
6     -2.105711470959e+00   9.986e-05   3.689e-05   -8.421e-08  
7     -2.105711471672e+00   9.363e-06   9.952e-06   -7.124e-10  

  |CLASS_NAME---------|NAME---------------|TIME(Sec)-----|CALLS----|AVG------|PER%-------
                       total               13.136         21        0.63      1e+02     %
   Driver              driver_line         13.125         1         13        1e+02     %
   PW_Basis            recip2real          2.9112         2153      0.0014    22        %
   PW_Basis            gathers_scatterp    0.287          2153      0.00013   2.2       %
   Potential           update_from_charge  7.3135         166       0.044     56        %
   Potential           cal_v_eff           7.311          166       0.044     56        %
   H_Hartree_pw        v_hartree           0.61347        166       0.0037    4.7       %
   PW_Basis            real2recip          3.094          2153      0.0014    24        %
   PW_Basis            gatherp_scatters    0.28585        2153      0.00013   2.2       %
   PotXC               cal_v_eff           6.6477         166       0.04      51        %
   XC_Functional       v_xc                6.2478         83        0.075     48        %
   XC_Functional       v_xc_libxc          6.6201         166       0.04      50        %
   ESolver_OF          Run                 12.497         1         12        95        %
   KEDF_LKT            LKT_potential       4.3695         165       0.026     33        %
   KEDF_vW             vw_potential        0.53328        165       0.0032    4.1       %
 ----------------------------------------------------------------------------------------

 START  Time  : Tue May  2 12:46:29 2023
 FINISH Time  : Tue May  2 12:46:42 2023
 TOTAL  Time  : 13
 SEE INFORMATION IN : OUT.blpstest/
