 *********************************************************
 *                                                       *
 *                  WELCOME TO ABACUS v3.0               *
 *                                                       *
 *            'Atomic-orbital Based Ab-initio            *
 *                  Computation at UStc'                 *
 *                                                       *
 *          Website: http://abacus.ustc.edu.cn/          *
 *                                                       *
 *********************************************************
 Thu Jan 11 22:15:52 2024
 MAKE THE DIR         : OUT.oftest/
Notice: symbol 'al_locpsp' is not an element symbol!!!! set the covalent radius to be 0.
Notice: symbol 'mg_locpsp' is not an element symbol!!!! set the covalent radius to be 0.
 UNIFORM GRID DIM     : 80 * 80 * 80
 UNIFORM GRID DIM(BIG): 80 * 80 * 80
func,idXC_GGA_X_PBE 101
func,idXC_GGA_C_PBE 130
 DONE(1.96769    SEC) : SETUP UNITCELL
 DONE(2.09413    SEC) : SYMMETRY
 DONE(2.11655    SEC) : INIT K-POINTS
 ---------------------------------------------------------
 Self-consistent calculations for electrons
 ---------------------------------------------------------
 SPIN    KPOINTS         PROCESSORS  
 1       504             1           
 ---------------------------------------------------------
 Use plane wave basis
 ---------------------------------------------------------
 ELEMENT NATOM       XC          
 Al      16          
 Mg      16          
 ---------------------------------------------------------
 Initial plane wave basis and FFT box
 ---------------------------------------------------------
 DONE(11.9373    SEC) : INIT BASIS
 DONE(11.9373    SEC) : INIT PHI
 DONE(12.5058    SEC) : LOCAL POTENTIAL
 DONE(12.5059    SEC) : NON-LOCAL POTENTIAL
 START CHARGE      : atomic
 DONE(15.5341    SEC) : INIT POTENTIAL
 DONE(15.5412    SEC) : INIT OPTIMIZATION
Default type: double
 DONE(15.5846    SEC) : INIT KEDF
======================== Running OFDFT ========================
Iter        Etot(Ha)          Theta      PotNorm     deltaE(Ha)
0     -4.421464176852e+01   2.000e-01   1.913e-01   -4.421e+01  
1     -4.444679277909e+01   4.475e-02   2.317e-01   -2.322e-01  
2     -4.760896559497e+01   1.361e-01   1.450e-01   -3.162e+00  
3     -4.782740336128e+01   2.570e-02   1.019e-02   -2.184e-01  
4     -4.782939510976e+01   3.298e-03   4.841e-03   -1.992e-03  
5     -4.782975773679e+01   1.947e-03   3.444e-04   -3.626e-04  
6     -4.782975990912e+01   1.576e-04   2.804e-05   -2.172e-06  
7     -4.782975992250e+01   9.922e-06   1.142e-05   -1.338e-08  
8     -4.782975992447e+01   4.755e-06   9.847e-07   -1.974e-09  
 ><><><><><><><><><><><><><><><><><><><><><><
 TOTAL-STRESS (KBAR):
 ><><><><><><><><><><><><><><><><><><><><><><
 2.800e+01      -3.964e-03     4.636e-02      
 -3.964e-03     2.847e+01      -2.985e-02     
 4.636e-02      -2.985e-02     2.871e+01      
 TOTAL-PRESSURE: 2.839e+01 KBAR

  |CLASS_NAME---------|NAME---------------|TIME(Sec)-----|CALLS----|AVG------|PER%-------
                       total               966.71         21        46        1e+02     %
   Driver              driver_line         966.7          1         9.7e+02   1e+02     %
   PW_Basis            setuptransform      1.5411         1         1.5       0.16      %
   mymath              heapsort            0.33728        30397     1.1e-05   0.035     %
   PW_Basis            setup_struc_factor  9.8204         1         9.8       1         %
   ppcell_vl           init_vloc           0.56825        1         0.57      0.059     %
   Charge              atomic_rho          0.60747        1         0.61      0.063     %
   PW_Basis            recip2real          242.58         2096      0.12      25        %
   PW_Basis            gathers_scatterp    40.598         2096      0.019     4.2       %
   Potential           init_pot            2.392          1         2.4       0.25      %
   Potential           update_from_charge  631.86         232       2.7       65        %
   Potential           cal_v_eff           631.78         232       2.7       65        %
   H_Hartree_pw        v_hartree           67.991         232       0.29      7         %
   PW_Basis            real2recip          248.91         2557      0.097     26        %
   PW_Basis            gatherp_scatters    33.434         2557      0.013     3.5       %
   PotXC               cal_v_eff           559.82         232       2.4       58        %
   XC_Functional       v_xc                461.41         116       4         48        %
   XC_Functional       v_xc_libxc          554.35         232       2.4       57        %
   ESolver_OF          Run                 921.29         1         9.2e+02   95        %
   KEDF_TF             tf_potential        26.344         231       0.11      2.7       %
   KEDF_WT             wt_potential        174.09         231       0.75      18        %
   KEDF_vW             vw_potential        59.916         231       0.26      6.2       %
   Forces              cal_force_loc       9.6554         1         9.7       1         %
   Forces              cal_force_ew        9.6075         1         9.6       0.99      %
   OF_Stress_PW        cal_stress          9.6241         1         9.6       1         %
   Stress_Func         stress_ewa          7.603          1         7.6       0.79      %
   Stress_Func         stress_gga          1.1349         1         1.1       0.12      %
   Stress_Func         stress_loc          0.80408        1         0.8       0.083     %
 ----------------------------------------------------------------------------------------

 START  Time  : Thu Jan 11 22:15:52 2024
 FINISH Time  : Thu Jan 11 22:31:59 2024
 TOTAL  Time  : 9.7e+02
 SEE INFORMATION IN : OUT.oftest/
