 *********************************************************
 *                                                       *
 *                  WELCOME TO ABACUS v3.0               *
 *                                                       *
 *            'Atomic-orbital Based Ab-initio            *
 *                  Computation at UStc'                 *
 *                                                       *
 *          Website: http://abacus.ustc.edu.cn/          *
 *                                                       *
 *********************************************************
 Thu Jan 11 22:15:52 2024
 MAKE THE DIR         : OUT.oftest/
Notice: symbol 'al_locpsp' is not an element symbol!!!! set the covalent radius to be 0.
Notice: symbol 'mg_locpsp' is not an element symbol!!!! set the covalent radius to be 0.
 UNIFORM GRID DIM     : 80 * 80 * 80
 UNIFORM GRID DIM(BIG): 80 * 80 * 80
func,idXC_GGA_X_PBE 101
func,idXC_GGA_C_PBE 130
 DONE(1.93542    SEC) : SETUP UNITCELL
 DONE(2.03918    SEC) : SYMMETRY
 DONE(2.05542    SEC) : INIT K-POINTS
 ---------------------------------------------------------
 Self-consistent calculations for electrons
 ---------------------------------------------------------
 SPIN    KPOINTS         PROCESSORS  
 1       312             1           
 ---------------------------------------------------------
 Use plane wave basis
 ---------------------------------------------------------
 ELEMENT NATOM       XC          
 Al      16          
 Mg      16          
 ---------------------------------------------------------
 Initial plane wave basis and FFT box
 ---------------------------------------------------------
 DONE(11.5842    SEC) : INIT BASIS
 DONE(11.5843    SEC) : INIT PHI
 DONE(12.1161    SEC) : LOCAL POTENTIAL
 DONE(12.1162    SEC) : NON-LOCAL POTENTIAL
 START CHARGE      : atomic
 DONE(15.3818    SEC) : INIT POTENTIAL
 DONE(15.3908    SEC) : INIT OPTIMIZATION
Default type: double
 DONE(15.4335    SEC) : INIT KEDF
======================== Running OFDFT ========================
Iter        Etot(Ha)          Theta      PotNorm     deltaE(Ha)
0     -4.414760585546e+01   2.000e-01   1.960e-01   -4.415e+01  
1     -4.424936804690e+01   2.953e-02   2.169e-01   -1.018e-01  
2     -4.762281451629e+01   1.241e-01   1.229e-01   -3.373e+00  
3     -4.783116837893e+01   4.242e-02   1.059e-02   -2.084e-01  
4     -4.783234630919e+01   2.124e-03   6.271e-03   -1.178e-03  
5     -4.783282882871e+01   2.222e-03   5.528e-04   -4.825e-04  
6     -4.783283660271e+01   2.802e-04   4.570e-05   -7.774e-06  
7     -4.783283662662e+01   8.458e-06   2.057e-05   -2.391e-08  
8     -4.783283663656e+01   1.107e-05   1.744e-06   -9.947e-09  
 ><><><><><><><><><><><><><><><><><><><><><><
 TOTAL-STRESS (KBAR):
 ><><><><><><><><><><><><><><><><><><><><><><
 2.899e+01      1.205e-01      0.000e+00      
 1.205e-01      2.851e+01      0.000e+00      
 0.000e+00      0.000e+00      2.863e+01      
 TOTAL-PRESSURE: 2.871e+01 KBAR

  |CLASS_NAME---------|NAME---------------|TIME(Sec)-----|CALLS----|AVG------|PER%-------
                       total               949.51         21        45        1e+02     %
   Driver              driver_line         949.49         1         9.5e+02   1e+02     %
   PW_Basis            setuptransform      1.5497         1         1.5       0.16      %
   mymath              heapsort            0.28034        29094     9.6e-06   0.03      %
   PW_Basis            setup_struc_factor  9.5285         1         9.5       1         %
   ppcell_vl           init_vloc           0.53162        1         0.53      0.056     %
   Charge              atomic_rho          0.688          1         0.69      0.072     %
   PW_Basis            recip2real          239.34         1997      0.12      25        %
   PW_Basis            gathers_scatterp    38.773         1997      0.019     4.1       %
   Potential           init_pot            2.5482         1         2.5       0.27      %
   Potential           update_from_charge  610.59         221       2.8       64        %
   Potential           cal_fixed_v         0.14065        1         0.14      0.015     %
   PotLocal            cal_fixed_v         0.13994        1         0.14      0.015     %
   Potential           cal_v_eff           610.44         221       2.8       64        %
   H_Hartree_pw        v_hartree           65.995         221       0.3       7         %
   PW_Basis            real2recip          254.37         2436      0.1       27        %
   PW_Basis            gatherp_scatters    32.761         2436      0.013     3.5       %
   PotXC               cal_v_eff           540.64         221       2.4       57        %
   XC_Functional       v_xc                448.67         111       4         47        %
   XC_Functional       v_xc_libxc          535.3          221       2.4       56        %
   ESolver_OF          Run                 900.33         1         9e+02     95        %
   KEDF_TF             tf_potential        24.373         220       0.11      2.6       %
   KEDF_WT             wt_potential        175.73         220       0.8       19        %
   KEDF_vW             vw_potential        60.54          220       0.28      6.4       %
   Forces              cal_force_loc       9.7987         1         9.8       1         %
   Forces              cal_force_ew        10.032         1         10        1.1       %
   OF_Stress_PW        cal_stress          12.67          1         13        1.3       %
   Stress_Func         stress_har          0.10265        1         0.1       0.011     %
   Stress_Func         stress_ewa          9.5608         1         9.6       1         %
   Stress_Func         stress_gga          1.8684         1         1.9       0.2       %
   Stress_Func         stress_loc          1.1371         1         1.1       0.12      %
 ----------------------------------------------------------------------------------------

 START  Time  : Thu Jan 11 22:15:52 2024
 FINISH Time  : Thu Jan 11 22:31:41 2024
 TOTAL  Time  : 9.5e+02
 SEE INFORMATION IN : OUT.oftest/
