 *********************************************************
 *                                                       *
 *                  WELCOME TO ABACUS v3.0               *
 *                                                       *
 *            'Atomic-orbital Based Ab-initio            *
 *                  Computation at UStc'                 *
 *                                                       *
 *          Website: http://abacus.ustc.edu.cn/          *
 *                                                       *
 *********************************************************
 Thu Jan 11 22:15:52 2024
 MAKE THE DIR         : OUT.oftest/
Notice: symbol 'al_locpsp' is not an element symbol!!!! set the covalent radius to be 0.
Notice: symbol 'mg_locpsp' is not an element symbol!!!! set the covalent radius to be 0.
 UNIFORM GRID DIM     : 80 * 80 * 80
 UNIFORM GRID DIM(BIG): 80 * 80 * 80
func,idXC_GGA_X_PBE 101
func,idXC_GGA_C_PBE 130
 DONE(2.24271    SEC) : SETUP UNITCELL
 DONE(2.34482    SEC) : SYMMETRY
 DONE(2.36421    SEC) : INIT K-POINTS
 ---------------------------------------------------------
 Self-consistent calculations for electrons
 ---------------------------------------------------------
 SPIN    KPOINTS         PROCESSORS  
 1       504             1           
 ---------------------------------------------------------
 Use plane wave basis
 ---------------------------------------------------------
 ELEMENT NATOM       XC          
 Al      16          
 Mg      16          
 ---------------------------------------------------------
 Initial plane wave basis and FFT box
 ---------------------------------------------------------
 DONE(12.7929    SEC) : INIT BASIS
 DONE(12.7929    SEC) : INIT PHI
 DONE(13.364     SEC) : LOCAL POTENTIAL
 DONE(13.3642    SEC) : NON-LOCAL POTENTIAL
 START CHARGE      : atomic
 DONE(17.2029    SEC) : INIT POTENTIAL
 DONE(17.2144    SEC) : INIT OPTIMIZATION
Default type: double
 DONE(17.2596    SEC) : INIT KEDF
======================== Running OFDFT ========================
Iter        Etot(Ha)          Theta      PotNorm     deltaE(Ha)
0     -4.377278050134e+01   2.000e-01   2.129e-01   -4.377e+01  
1     -4.753164342968e+01   1.557e-01   1.720e-01   -3.759e+00  
2     -4.779675221195e+01   2.509e-02   4.210e-02   -2.651e-01  
3     -4.782001988386e+01   1.259e-02   4.545e-03   -2.327e-02  
4     -4.782066592283e+01   2.764e-03   3.538e-04   -6.460e-04  
5     -4.782066793945e+01   9.713e-05   1.629e-04   -2.017e-06  
6     -4.782066840482e+01   7.221e-05   1.570e-05   -4.654e-07  
7     -4.782066840833e+01   4.213e-06   9.363e-06   -3.509e-09  
 ><><><><><><><><><><><><><><><><><><><><><><
 TOTAL-STRESS (KBAR):
 ><><><><><><><><><><><><><><><><><><><><><><
 2.735e+01      1.254e-02      3.759e-02      
 1.254e-02      2.759e+01      2.458e-02      
 3.759e-02      2.458e-02      2.753e+01      
 TOTAL-PRESSURE: 2.749e+01 KBAR

  |CLASS_NAME---------|NAME---------------|TIME(Sec)-----|CALLS----|AVG------|PER%-------
                       total               744.54         21        35        1e+02     %
   Driver              driver_line         744.47         1         7.4e+02   1e+02     %
   PW_Basis            setuptransform      1.8755         1         1.9       0.25      %
   mymath              heapsort            0.19396        29345     6.6e-06   0.026     %
   PW_Basis            setup_struc_factor  10.428         1         10        1.4       %
   ppcell_vl           init_vloc           0.57068        1         0.57      0.077     %
   Charge              atomic_rho          0.75273        1         0.75      0.1       %
   PW_Basis            recip2real          172.68         1547      0.11      23        %
   PW_Basis            gathers_scatterp    31.02          1547      0.02      4.2       %
   Potential           init_pot            3.0071         1         3         0.4       %
   Potential           update_from_charge  479.44         171       2.8       64        %
   Potential           cal_fixed_v         0.15132        1         0.15      0.02      %
   PotLocal            cal_fixed_v         0.13217        1         0.13      0.018     %
   Potential           cal_v_eff           479.29         171       2.8       64        %
   H_Hartree_pw        v_hartree           49.338         171       0.29      6.6       %
   PW_Basis            real2recip          195.94         1886      0.1       26        %
   PW_Basis            gatherp_scatters    26.403         1886      0.014     3.5       %
   PotXC               cal_v_eff           427.02         171       2.5       57        %
   XC_Functional       v_xc                344.49         86        4         46        %
   XC_Functional       v_xc_libxc          422.8          171       2.5       57        %
   ESolver_OF          Run                 692.69         1         6.9e+02   93        %
   KEDF_TF             tf_potential        19.487         170       0.11      2.6       %
   KEDF_WT             wt_potential        128.69         170       0.76      17        %
   KEDF_vW             vw_potential        43.934         170       0.26      5.9       %
   Forces              cal_force_loc       10.046         1         10        1.3       %
   Forces              cal_force_ew        10.165         1         10        1.4       %
   OF_Stress_PW        cal_stress          12.826         1         13        1.7       %
   Stress_Func         stress_har          0.16139        1         0.16      0.022     %
   Stress_Func         stress_ewa          9.6267         1         9.6       1.3       %
   Stress_Func         stress_gga          1.9083         1         1.9       0.26      %
   Stress_Func         stress_loc          1.1189         1         1.1       0.15      %
 ----------------------------------------------------------------------------------------

 START  Time  : Thu Jan 11 22:15:52 2024
 FINISH Time  : Thu Jan 11 22:28:16 2024
 TOTAL  Time  : 7.4e+02
 SEE INFORMATION IN : OUT.oftest/
