 *********************************************************
 *                                                       *
 *                  WELCOME TO ABACUS v3.0               *
 *                                                       *
 *            'Atomic-orbital Based Ab-initio            *
 *                  Computation at UStc'                 *
 *                                                       *
 *          Website: http://abacus.ustc.edu.cn/          *
 *                                                       *
 *********************************************************
 Thu Jan 11 22:15:52 2024
 MAKE THE DIR         : OUT.oftest/
Notice: symbol 'al_locpsp' is not an element symbol!!!! set the covalent radius to be 0.
Notice: symbol 'mg_locpsp' is not an element symbol!!!! set the covalent radius to be 0.
 UNIFORM GRID DIM     : 80 * 80 * 80
 UNIFORM GRID DIM(BIG): 80 * 80 * 80
func,idXC_GGA_X_PBE 101
func,idXC_GGA_C_PBE 130
 DONE(1.99514    SEC) : SETUP UNITCELL
 DONE(2.10355    SEC) : SYMMETRY
 DONE(2.12658    SEC) : INIT K-POINTS
 ---------------------------------------------------------
 Self-consistent calculations for electrons
 ---------------------------------------------------------
 SPIN    KPOINTS         PROCESSORS  
 1       504             1           
 ---------------------------------------------------------
 Use plane wave basis
 ---------------------------------------------------------
 ELEMENT NATOM       XC          
 Al      16          
 Mg      16          
 ---------------------------------------------------------
 Initial plane wave basis and FFT box
 ---------------------------------------------------------
 DONE(12.1027    SEC) : INIT BASIS
 DONE(12.1027    SEC) : INIT PHI
 DONE(12.6189    SEC) : LOCAL POTENTIAL
 DONE(12.6189    SEC) : NON-LOCAL POTENTIAL
 START CHARGE      : atomic
 DONE(16.1994    SEC) : INIT POTENTIAL
 DONE(16.2104    SEC) : INIT OPTIMIZATION
Default type: double
 DONE(16.2542    SEC) : INIT KEDF
======================== Running OFDFT ========================
Iter        Etot(Ha)          Theta      PotNorm     deltaE(Ha)
0     -4.422241170434e+01   2.000e-01   1.921e-01   -4.422e+01  
1     -4.452768873800e+01   5.251e-02   2.405e-01   -3.053e-01  
2     -4.768579236281e+01   1.170e-01   1.128e-01   -3.158e+00  
3     -4.783286956407e+01   3.369e-02   8.760e-03   -1.471e-01  
4     -4.783425120283e+01   3.454e-03   1.787e-03   -1.382e-03  
5     -4.783428726215e+01   3.901e-04   8.698e-04   -3.606e-05  
6     -4.783429546913e+01   1.533e-04   4.336e-04   -8.207e-06  
7     -4.783430175674e+01   3.067e-04   4.497e-05   -6.288e-06  
8     -4.783430180245e+01   2.075e-05   3.377e-06   -4.571e-08  
9     -4.783430180264e+01   1.265e-06   4.247e-07   -1.851e-10  
 ><><><><><><><><><><><><><><><><><><><><><><
 TOTAL-STRESS (KBAR):
 ><><><><><><><><><><><><><><><><><><><><><><
 2.818e+01      -2.793e-03     -5.293e-02     
 -2.793e-03     2.922e+01      -5.175e-02     
 -5.293e-02     -5.175e-02     2.912e+01      
 TOTAL-PRESSURE: 2.884e+01 KBAR

  |CLASS_NAME---------|NAME---------------|TIME(Sec)-----|CALLS----|AVG------|PER%-------
                       total               1030.1         21        49        1e+02     %
   Driver              driver_line         1030.1         1         1e+03     1e+02     %
   PW_Basis            setuptransform      1.6918         1         1.7       0.16      %
   mymath              heapsort            0.22113        29002     7.6e-06   0.021     %
   PW_Basis            setup_struc_factor  9.9758         1         10        0.97      %
   ppcell_vl           init_vloc           0.51591        1         0.52      0.05      %
   Charge              atomic_rho          0.64902        1         0.65      0.063     %
   PW_Basis            recip2real          249.58         2240      0.11      24        %
   PW_Basis            gathers_scatterp    41.254         2240      0.018     4         %
   Potential           init_pot            2.8843         1         2.9       0.28      %
   Potential           update_from_charge  672.45         248       2.7       65        %
   Potential           cal_fixed_v         0.14584        1         0.15      0.014     %
   PotLocal            cal_fixed_v         0.14275        1         0.14      0.014     %
   Potential           cal_v_eff           672.3          248       2.7       65        %
   H_Hartree_pw        v_hartree           67.159         248       0.27      6.5       %
   PW_Basis            real2recip          290.49         2733      0.11      28        %
   PW_Basis            gatherp_scatters    35.298         2733      0.013     3.4       %
   PotXC               cal_v_eff           601.31         248       2.4       58        %
   XC_Functional       v_xc                493.21         124       4         48        %
   XC_Functional       v_xc_libxc          595.26         248       2.4       58        %
   ESolver_OF          Run                 983.96         1         9.8e+02   96        %
   KEDF_TF             tf_potential        28.73          247       0.12      2.8       %
   KEDF_WT             wt_potential        193.76         247       0.78      19        %
   KEDF_vW             vw_potential        62.074         247       0.25      6         %
   Forces              cal_force_loc       7.5212         1         7.5       0.73      %
   Forces              cal_force_ew        8.9379         1         8.9       0.87      %
   OF_Stress_PW        cal_stress          12.357         1         12        1.2       %
   Stress_Func         stress_har          0.11495        1         0.11      0.011     %
   Stress_Func         stress_ewa          9.4159         1         9.4       0.91      %
   Stress_Func         stress_gga          1.7292         1         1.7       0.17      %
   Stress_Func         stress_loc          1.0969         1         1.1       0.11      %
 ----------------------------------------------------------------------------------------

 START  Time  : Thu Jan 11 22:15:52 2024
 FINISH Time  : Thu Jan 11 22:33:02 2024
 TOTAL  Time  : 1e+03
 SEE INFORMATION IN : OUT.oftest/
