 *********************************************************
 *                                                       *
 *                  WELCOME TO ABACUS v3.0               *
 *                                                       *
 *            'Atomic-orbital Based Ab-initio            *
 *                  Computation at UStc'                 *
 *                                                       *
 *          Website: http://abacus.ustc.edu.cn/          *
 *                                                       *
 *********************************************************
 Thu Jan 11 22:31:06 2024
 MAKE THE DIR         : OUT.oftest/
Notice: symbol 'al_locpsp' is not an element symbol!!!! set the covalent radius to be 0.
Notice: symbol 'mg_locpsp' is not an element symbol!!!! set the covalent radius to be 0.
 UNIFORM GRID DIM     : 80 * 80 * 80
 UNIFORM GRID DIM(BIG): 80 * 80 * 80
func,idXC_GGA_X_PBE 101
func,idXC_GGA_C_PBE 130
 DONE(2.40406    SEC) : SETUP UNITCELL
 DONE(2.50221    SEC) : SYMMETRY
 DONE(2.53086    SEC) : INIT K-POINTS
 ---------------------------------------------------------
 Self-consistent calculations for electrons
 ---------------------------------------------------------
 SPIN    KPOINTS         PROCESSORS  
 1       504             1           
 ---------------------------------------------------------
 Use plane wave basis
 ---------------------------------------------------------
 ELEMENT NATOM       XC          
 Al      16          
 Mg      16          
 ---------------------------------------------------------
 Initial plane wave basis and FFT box
 ---------------------------------------------------------
 DONE(12.9828    SEC) : INIT BASIS
 DONE(12.9828    SEC) : INIT PHI
 DONE(13.5243    SEC) : LOCAL POTENTIAL
 DONE(13.5245    SEC) : NON-LOCAL POTENTIAL
 START CHARGE      : atomic
 DONE(16.2878    SEC) : INIT POTENTIAL
 DONE(16.2927    SEC) : INIT OPTIMIZATION
Default type: double
 DONE(16.3244    SEC) : INIT KEDF
======================== Running OFDFT ========================
Iter        Etot(Ha)          Theta      PotNorm     deltaE(Ha)
0     -4.428049062322e+01   2.000e-01   1.886e-01   -4.428e+01  
1     -4.464948314632e+01   5.702e-02   2.453e-01   -3.690e-01  
2     -4.764943885257e+01   1.274e-01   1.311e-01   -3.000e+00  
3     -4.782993606374e+01   2.292e-02   1.529e-02   -1.805e-01  
4     -4.783225793445e+01   2.689e-03   7.658e-03   -2.322e-03  
5     -4.783323542313e+01   3.296e-03   6.579e-04   -9.775e-04  
6     -4.783324397814e+01   2.305e-04   2.619e-04   -8.555e-06  
7     -4.783324512593e+01   1.040e-04   7.644e-05   -1.148e-06  
8     -4.783324517071e+01   9.198e-06   1.802e-05   -4.478e-08  
9     -4.783324518045e+01   1.138e-05   6.133e-06   -9.739e-09  
 ><><><><><><><><><><><><><><><><><><><><><><
 TOTAL-STRESS (KBAR):
 ><><><><><><><><><><><><><><><><><><><><><><
 2.897e+01      3.352e-03      1.558e-02      
 3.352e-03      2.871e+01      -6.852e-02     
 1.558e-02      -6.852e-02     2.863e+01      
 TOTAL-PRESSURE: 2.877e+01 KBAR

  |CLASS_NAME---------|NAME---------------|TIME(Sec)-----|CALLS----|AVG------|PER%-------
                       total               462.01         21        22        1e+02     %
   Driver              driver_line         461.97         1         4.6e+02   1e+02     %
   PW_Basis            setuptransform      1.7994         1         1.8       0.39      %
   mymath              heapsort            0.4331         30403     1.4e-05   0.094     %
   PW_Basis            setup_struc_factor  10.451         1         10        2.3       %
   ppcell_vl           init_vloc           0.5409         1         0.54      0.12      %
   Charge              atomic_rho          0.67948        1         0.68      0.15      %
   PW_Basis            recip2real          105.8          1952      0.054     23        %
   PW_Basis            gathers_scatterp    16.535         1952      0.0085    3.6       %
   Potential           init_pot            2.0155         1         2         0.44      %
   Potential           update_from_charge  284.01         216       1.3       61        %
   Potential           cal_fixed_v         0.11035        1         0.11      0.024     %
   PotLocal            cal_fixed_v         0.1085         1         0.11      0.023     %
   Potential           cal_v_eff           283.9          216       1.3       61        %
   H_Hartree_pw        v_hartree           28.98          216       0.13      6.3       %
   PW_Basis            real2recip          113.71         2381      0.048     25        %
   PW_Basis            gatherp_scatters    13.206         2381      0.0055    2.9       %
   PotXC               cal_v_eff           253.42         216       1.2       55        %
   XC_Functional       v_xc                212.63         108       2         46        %
   XC_Functional       v_xc_libxc          251.41         216       1.2       54        %
   ESolver_OF          Run                 423.35         1         4.2e+02   92        %
   KEDF_TF             tf_potential        16.321         215       0.076     3.5       %
   KEDF_WT             wt_potential        87.703         215       0.41      19        %
   KEDF_vW             vw_potential        25.509         215       0.12      5.5       %
   Forces              cal_force_loc       6.7951         1         6.8       1.5       %
   Forces              cal_force_ew        6.7498         1         6.7       1.5       %
   OF_Stress_PW        cal_stress          8.3632         1         8.4       1.8       %
   Stress_Func         stress_ewa          6.8593         1         6.9       1.5       %
   Stress_Func         stress_gga          0.79629        1         0.8       0.17      %
   Stress_Func         stress_loc          0.66856        1         0.67      0.14      %
 ----------------------------------------------------------------------------------------

 START  Time  : Thu Jan 11 22:31:06 2024
 FINISH Time  : Thu Jan 11 22:38:48 2024
 TOTAL  Time  : 4.6e+02
 SEE INFORMATION IN : OUT.oftest/
