 *********************************************************
 *                                                       *
 *                  WELCOME TO ABACUS v3.0               *
 *                                                       *
 *            'Atomic-orbital Based Ab-initio            *
 *                  Computation at UStc'                 *
 *                                                       *
 *          Website: http://abacus.ustc.edu.cn/          *
 *                                                       *
 *********************************************************
 Tue May  2 12:46:42 2023
 MAKE THE DIR         : OUT.blpstest/
Notice: symbol 'al_locpsp' is not an element symbol!!!! set the covalent radius to be 0.
 UNIFORM GRID DIM     : 25 * 25 * 25
 UNIFORM GRID DIM(BIG): 25 * 25 * 25
func,idXC_GGA_X_PBE 101
func,idXC_GGA_C_PBE 130
 DONE(0.101153   SEC) : SETUP UNITCELL
 DONE(0.162212   SEC) : SYMMETRY
 DONE(0.485274   SEC) : INIT K-POINTS
 ---------------------------------------------------------
 Self-consistent calculations for electrons
 ---------------------------------------------------------
 SPIN    KPOINTS         PROCESSORS  
 1       286             1           
 ---------------------------------------------------------
 Use plane wave basis
 ---------------------------------------------------------
 ELEMENT NATOM       XC          
 Al      1           
 ---------------------------------------------------------
 Initial plane wave basis and FFT box
 ---------------------------------------------------------
 DONE(0.48631    SEC) : INIT BASIS
 DONE(0.486359   SEC) : INIT PHI
 DONE(0.510448   SEC) : LOCAL POTENTIAL
 DONE(0.51051    SEC) : NON-LOCAL POTENTIAL
 START CHARGE      : atomic
 DONE(0.566111   SEC) : INIT POTENTIAL
 DONE(0.566202   SEC) : INIT OPTIMIZATION
Default type: double
 DONE(0.567266   SEC) : INIT KEDF
======================== Running OFDFT ========================
Iter        Etot(Ha)          Theta      PotNorm     deltaE(Ha)
0     -1.977172364665e+00   2.000e-01   1.843e-01   -1.977e+00  
1     -1.985735559698e+00   3.858e-02   2.146e-01   -8.563e-03  
2     -2.080502256718e+00   1.286e-01   1.597e-01   -9.477e-02  
3     -2.084612723004e+00   1.511e-02   1.365e-02   -4.110e-03  
4     -2.084758174392e+00   5.500e-03   1.225e-03   -1.455e-04  
5     -2.084758830320e+00   2.682e-04   3.912e-04   -6.559e-07  
6     -2.084758897607e+00   1.009e-04   2.781e-05   -6.729e-08  

  |CLASS_NAME---------|NAME---------------|TIME(Sec)-----|CALLS----|AVG------|PER%-------
                       total               3.8724         21        0.18      1e+02     %
   Driver              driver_line         3.8537         1         3.9       1e+02     %
   PW_Basis            recip2real          0.61254        1594      0.00038   16        %
   Potential           update_from_charge  1.9652         123       0.016     51        %
   Potential           cal_v_eff           1.9638         123       0.016     51        %
   H_Hartree_pw        v_hartree           0.12835        123       0.001     3.3       %
   PW_Basis            real2recip          0.66478        1594      0.00042   17        %
   PotXC               cal_v_eff           1.8247         123       0.015     47        %
   XC_Functional       v_xc                1.6627         62        0.027     43        %
   XC_Functional       v_xc_libxc          1.8164         123       0.015     47        %
   ESolver_OF          Run                 3.3042         1         3.3       85        %
   KEDF_LKT            LKT_potential       1.1505         122       0.0094    30        %
   KEDF_vW             vw_potential        0.12632        122       0.001     3.3       %
 ----------------------------------------------------------------------------------------

 START  Time  : Tue May  2 12:46:42 2023
 FINISH Time  : Tue May  2 12:46:46 2023
 TOTAL  Time  : 4
 SEE INFORMATION IN : OUT.blpstest/
