                                                                                     
                             WELCOME TO ABACUS v3.0                                  
                                                                                     
               'Atomic-orbital Based Ab-initio Computation at UStc'                  
                                                                                     
                     Website: http://abacus.ustc.edu.cn/                             
                                                                                     
    Version: Parallel, in development
    Processor Number is 1
    Start Time is Mon May 15 13:22:30 2023
                                                                                     
 ------------------------------------------------------------------------------------

 READING GENERAL INFORMATION
                           global_out_dir = OUT.oftest/
                           global_in_card = INPUT
                               pseudo_dir = 
                              orbital_dir = 
                                    DRANK = 1
                                    DSIZE = 1
                                   DCOLOR = 1
                                    GRANK = 1
                                    GSIZE = 1
 The esolver type has been set to : ofdft




 >>>>>>>>>>>>>>>>>>>>>>>>>>>>>>>>>>>>>>>>>>>>>>>>>>>>>>>>>>>>>>>>>>>>>>
 |                                                                    |
 | Reading atom information in unitcell:                              |
 | From the input file and the structure file we know the number of   |
 | different elments in this unitcell, then we list the detail        |
 | information for each element, especially the zeta and polar atomic |
 | orbital number for each element. The total atom number is counted. |
 | We calculate the nearest atom distance for each atom and show the  |
 | Cartesian and Direct coordinates for each atom. We list the file   |
 | address for atomic orbitals. The volume and the lattice vectors    |
 | in real and reciprocal space is also shown.                        |
 |                                                                    |
 <<<<<<<<<<<<<<<<<<<<<<<<<<<<<<<<<<<<<<<<<<<<<<<<<<<<<<<<<<<<<<<<<<<<<<




 READING UNITCELL INFORMATION
                                    ntype = 2
                 atom label for species 1 = Li
                 atom label for species 2 = Al
                  lattice constant (Bohr) = 1.88973
              lattice constant (Angstrom) = 1

 READING ATOM TYPE 1
                               atom label = Li
                      L=0, number of zeta = 1
                      L=1, number of zeta = 1
                      L=2, number of zeta = 1
             number of atom for this type = 32
                      start magnetization = FALSE
                      start magnetization = FALSE
                      start magnetization = FALSE
                      start magnetization = FALSE
                      start magnetization = FALSE
                      start magnetization = FALSE
                      start magnetization = FALSE
                      start magnetization = FALSE
                      start magnetization = FALSE
                      start magnetization = FALSE
                      start magnetization = FALSE
                      start magnetization = FALSE
                      start magnetization = FALSE
                      start magnetization = FALSE
                      start magnetization = FALSE
                      start magnetization = FALSE
                      start magnetization = FALSE
                      start magnetization = FALSE
                      start magnetization = FALSE
                      start magnetization = FALSE
                      start magnetization = FALSE
                      start magnetization = FALSE
                      start magnetization = FALSE
                      start magnetization = FALSE
                      start magnetization = FALSE
                      start magnetization = FALSE
                      start magnetization = FALSE
                      start magnetization = FALSE
                      start magnetization = FALSE
                      start magnetization = FALSE
                      start magnetization = FALSE
                      start magnetization = FALSE

 READING ATOM TYPE 2
                               atom label = Al
                      L=0, number of zeta = 1
                      L=1, number of zeta = 1
                      L=2, number of zeta = 1
             number of atom for this type = 16
                      start magnetization = FALSE
                      start magnetization = FALSE
                      start magnetization = FALSE
                      start magnetization = FALSE
                      start magnetization = FALSE
                      start magnetization = FALSE
                      start magnetization = FALSE
                      start magnetization = FALSE
                      start magnetization = FALSE
                      start magnetization = FALSE
                      start magnetization = FALSE
                      start magnetization = FALSE
                      start magnetization = FALSE
                      start magnetization = FALSE
                      start magnetization = FALSE
                      start magnetization = FALSE

                        TOTAL ATOM NUMBER = 48

 DIRECT COORDINATES
         atom                   x                   y                   z                 mag                  vx                  vy                  vz
     taud_Li1            0.396553            0.896553            0.896553                   0                   0                   0                   0
     taud_Li2            0.103447            0.103447            0.396553                   0                   0                   0                   0
     taud_Li3            0.103447            0.896553            0.603447                   0                   0                   0                   0
     taud_Li4            0.146553            0.146553            0.853447                   0                   0                   0                   0
     taud_Li5            0.353447            0.353447            0.853447                   0                   0                   0                   0
     taud_Li6            0.396553            0.103447            0.103447                   0                   0                   0                   0
     taud_Li7            0.146553            0.353447            0.646553                   0                   0                   0                   0
     taud_Li8            0.353447            0.146553            0.646553                   0                   0                   0                   0
     taud_Li9            0.396553            0.396553            0.396553                   0                   0                   0                   0
    taud_Li10            0.103447            0.603447            0.896553                   0                   0                   0                   0
    taud_Li11            0.103447            0.396553            0.103447                   0                   0                   0                   0
    taud_Li12            0.146553            0.646553            0.353447                   0                   0                   0                   0
    taud_Li13            0.353447            0.853447            0.353447                   0                   0                   0                   0
    taud_Li14            0.396553            0.603447            0.603447                   0                   0                   0                   0
    taud_Li15            0.146553            0.853447            0.146553                   0                   0                   0                   0
    taud_Li16            0.353447            0.646553            0.146553                   0                   0                   0                   0
    taud_Li17            0.896553            0.896553            0.396553                   0                   0                   0                   0
    taud_Li18            0.603447            0.103447            0.896553                   0                   0                   0                   0
    taud_Li19            0.603447            0.896553            0.103447                   0                   0                   0                   0
    taud_Li20            0.646553            0.146553            0.353447                   0                   0                   0                   0
    taud_Li21            0.853447            0.353447            0.353447                   0                   0                   0                   0
    taud_Li22            0.896553            0.103447            0.603447                   0                   0                   0                   0
    taud_Li23            0.646553            0.353447            0.146553                   0                   0                   0                   0
    taud_Li24            0.853447            0.146553            0.146553                   0                   0                   0                   0
    taud_Li25            0.896553            0.396553            0.896553                   0                   0                   0                   0
    taud_Li26            0.603447            0.603447            0.396553                   0                   0                   0                   0
    taud_Li27            0.603447            0.396553            0.603447                   0                   0                   0                   0
    taud_Li28            0.646553            0.646553            0.853447                   0                   0                   0                   0
    taud_Li29            0.853447            0.853447            0.853447                   0                   0                   0                   0
    taud_Li30            0.896553            0.603447            0.103447                   0                   0                   0                   0
    taud_Li31            0.646553            0.853447            0.646553                   0                   0                   0                   0
    taud_Li32            0.853447            0.646553            0.646553                   0                   0                   0                   0
     taud_Al1               0.125               0.625               0.625                   0                   0                   0                   0
     taud_Al2               0.375               0.875               0.625                   0                   0                   0                   0
     taud_Al3               0.375               0.625               0.875                   0                   0                   0                   0
     taud_Al4               0.125               0.875               0.875                   0                   0                   0                   0
     taud_Al5               0.125               0.125               0.125                   0                   0                   0                   0
     taud_Al6               0.375               0.375               0.125                   0                   0                   0                   0
     taud_Al7               0.375               0.125               0.375                   0                   0                   0                   0
     taud_Al8               0.125               0.375               0.375                   0                   0                   0                   0
     taud_Al9               0.625               0.625               0.125                   0                   0                   0                   0
    taud_Al10               0.875               0.875               0.125                   0                   0                   0                   0
    taud_Al11               0.875               0.625               0.375                   0                   0                   0                   0
    taud_Al12               0.625               0.875               0.375                   0                   0                   0                   0
    taud_Al13               0.625               0.125               0.625                   0                   0                   0                   0
    taud_Al14               0.875               0.375               0.625                   0                   0                   0                   0
    taud_Al15               0.875               0.125               0.875                   0                   0                   0                   0
    taud_Al16               0.625               0.375               0.875                   0                   0                   0                   0


                          Volume (Bohr^3) = 6043.28
                             Volume (A^3) = 895.52

 Lattice vectors: (Cartesian coordinate: in unit of a_0)
             +9.63885                  +0                  +0
                   +0            +9.63885                  +0
                   +0                  +0            +9.63885
 Reciprocal vectors: (Cartesian coordinate: in unit of 2 pi/a_0)
            +0.103747                  -0                  +0
                   -0           +0.103747                  -0
                   +0                  -0           +0.103747




 >>>>>>>>>>>>>>>>>>>>>>>>>>>>>>>>>>>>>>>>>>>>>>>>>>>>>>>>>>>>>>>>>>>>>>
 |                                                                    |
 | Reading pseudopotentials files:                                    |
 | The pseudopotential file is in UPF format. The 'NC' indicates that |
 | the type of pseudopotential is 'norm conserving'. Functional of    |
 | exchange and correlation is decided by 4 given parameters in UPF   |
 | file.  We also read in the 'core correction' if there exists.      |
 | Also we can read the valence electrons number and the maximal      |
 | angular momentum used in this pseudopotential. We also read in the |
 | trail wave function, trail atomic density and local-pseudopotential|
 | on logrithmic grid. The non-local pseudopotential projector is also|
 | read in if there is any.                                           |
 |                                                                    |
 <<<<<<<<<<<<<<<<<<<<<<<<<<<<<<<<<<<<<<<<<<<<<<<<<<<<<<<<<<<<<<<<<<<<<<




                PAO radial cut off (Bohr) = 16

 Read in pseudopotential file is li.gga.psp.1
                     pseudopotential type = 
          exchange-correlation functional = XC_GGA_X_PBE+XC_GGA_C_PBE
                 nonlocal core correction = 0
                        valence electrons = 1
                                     lmax = 0
                           number of zeta = 0
                     number of projectors = 0
                PAO radial cut off (Bohr) = 16

 Read in pseudopotential file is al.gga.psp
                     pseudopotential type = 
          exchange-correlation functional = XC_GGA_X_PBE+XC_GGA_C_PBE
                 nonlocal core correction = 0
                        valence electrons = 3
                                     lmax = 0
                           number of zeta = 0
                     number of projectors = 0
Notice: symbol 'Li_locpsp' is not an element symbol!!!! set the covalent radius to be 0.
Notice: symbol 'al_locpsp' is not an element symbol!!!! set the covalent radius to be 0.
     initial pseudo atomic orbital number = 0
                                   NLOCAL = 432




 >>>>>>>>>>>>>>>>>>>>>>>>>>>>>>>>>>>>>>>>>>>>>>>>>>>>>>>>>>>>>>>>>>>>>>
 |                                                                    |
 | Setup plane waves of charge/potential:                             |
 | Use the energy cutoff and the lattice vectors to generate the      |
 | dimensions of FFT grid. The number of FFT grid on each processor   |
 | is 'nrxx'. The number of plane wave basis in reciprocal space is   |
 | different for charege/potential and wave functions. We also set    |
 | the 'sticks' for the parallel of FFT. The number of plane waves    |
 | is 'npw' in each processor.                                        |
 <<<<<<<<<<<<<<<<<<<<<<<<<<<<<<<<<<<<<<<<<<<<<<<<<<<<<<<<<<<<<<<<<<<<<<





 SETUP THE PLANE WAVE BASIS
 energy cutoff for charge/potential (unit:Ry) = 235.196
          [fft grid for charge/potential] = 90, 90, 90
                      [fft grid division] = 1, 1, 1
      [big fft grid for charge/potential] = 90, 90, 90
                                     nbxx = 729000
                                     nrxx = 729000

 SETUP PLANE WAVES FOR CHARGE/POTENTIAL
                    number of plane waves = 729000
                         number of sticks = 8100

 PARALLEL PW FOR CHARGE/POTENTIAL
     PROC   COLUMNS(POT)             PW
        1           8100         729000
 --------------- sum -------------------
        1           8100         729000
                            number of |g| = 3868
                                  max |g| = 65.3876
                                  min |g| = 0

 SETUP THE ELECTRONS NUMBER
            electron number of element Li = 1
      total electron number of element Li = 32
            electron number of element Al = 3
      total electron number of element Al = 48
            AUTOSET number of electrons:  = 80
 DONE : SETUP UNITCELL Time : 6.31256 (SEC)





 >>>>>>>>>>>>>>>>>>>>>>>>>>>>>>>>>>>>>>>>>>>>>>>>>>>>>>>>>>>>>>>>>>>>>>
 |                                                                    |
 | Doing symmetry analysis:                                           |
 | We calculate the norm of 3 vectors and the angles between them,    |
 | the type of Bravais lattice is given. We can judge if the unticell |
 | is a primitive cell. Finally we give the point group operation for |
 | this unitcell. We we use the point group operations to do symmetry |
 | analysis on given k-point mesh and the charge density.             |
 |                                                                    |
 <<<<<<<<<<<<<<<<<<<<<<<<<<<<<<<<<<<<<<<<<<<<<<<<<<<<<<<<<<<<<<<<<<<<<<




 LATTICE VECTORS: (CARTESIAN COORDINATE: IN UNIT OF A0)
             +9.63885                  +0                  +0
                   +0            +9.63885                  +0
                   +0                  +0            +9.63885
                       right hand lattice = 1
                                   NORM_A = 9.63885
                                   NORM_B = 9.63885
                                   NORM_C = 9.63885
                           ALPHA (DEGREE) = 90
                           BETA  (DEGREE) = 90
                           GAMMA (DEGREE) = 90
                             BRAVAIS TYPE = 1
                     BRAVAIS LATTICE NAME = 01. Cubic P (simple)
                                    IBRAV = 1
                                  BRAVAIS = SIMPLE CUBIC
                       LATTICE CONSTANT A = 9.63885
                                    ibrav = 1
                        ROTATION MATRICES = 48
              PURE POINT GROUP OPERATIONS = 48
                   SPACE GROUP OPERATIONS = 48
                              POINT GROUP = O_h
Warning : If the optimal symmetric configuration is not the input configuration, 
you have to manually change configurations, ABACUS would only calculate the input structure.
 DONE : SYMMETRY Time : 6.43334 (SEC)





 >>>>>>>>>>>>>>>>>>>>>>>>>>>>>>>>>>>>>>>>>>>>>>>>>>>>>>>>>>>>>>>>>>>>>>
 |                                                                    |
 | Setup K-points                                                     |
 | We setup the k-points according to input parameters.               |
 | The reduced k-points are set according to symmetry operations.     |
 | We treat the spin as another set of k-points.                      |
 |                                                                    |
 <<<<<<<<<<<<<<<<<<<<<<<<<<<<<<<<<<<<<<<<<<<<<<<<<<<<<<<<<<<<<<<<<<<<<<





 SETUP K-POINTS
                                    nspin = 1
                   Input type of k points = Monkhorst-Pack(Gamma)
                                   nkstot = 1
                               nkstot_ibz = 1
      IBZ             DirectX             DirectY             DirectZ              Weight    ibz2bz
        1                   0                   0                   0                   1         0
                               nkstot now = 1

  KPOINTS            DIRECT_X            DIRECT_Y            DIRECT_Z              WEIGHT
        1                   0                   0                   0                   1

           k-point number in this process = 1
       minimum distributed K point number = 1

  KPOINTS         CARTESIAN_X         CARTESIAN_Y         CARTESIAN_Z              WEIGHT
        1                   0                   0                   0                   2

  KPOINTS            DIRECT_X            DIRECT_Y            DIRECT_Z              WEIGHT
        1                   0                   0                   0                   2
 DONE : INIT K-POINTS Time : 6.44767 (SEC)

 DONE : INIT BASIS Time : 15.7917 (SEC)

 DONE : INIT PHI Time : 15.7925 (SEC)


 SETUP NONLOCAL PSEUDOPOTENTIALS IN PLANE WAVE BASIS
 Li non-local projectors:
 Al non-local projectors:
      TOTAL NUMBER OF NONLOCAL PROJECTORS = 0

 nhm = 0, not allocate some matrix. DONE : LOCAL POTENTIAL Time : 16.6329 (SEC)


 Init Non-Local PseudoPotential table : 
 Init Non-Local-Pseudopotential done.
 DONE : NON-LOCAL POTENTIAL Time : 16.6353 (SEC)

Successful completion of Potential's registration : local
Successful completion of Potential's registration : hartree
Successful completion of Potential's registration : xc
                                 init_chg = atomic
 DONE : INIT POTENTIAL Time : 21.5004 (SEC)

 DONE : INIT OPTIMIZATION Time : 21.5082 (SEC)

 DONE : INIT KEDF Time : 21.555 (SEC)


 charge density convergence is achieved
 final etot is -1153.52 eV



 ><><><><><><><><><><><><><><><><><><><><><><

    TOTAL-FORCE (eV/Angstrom)

 ><><><><><><><><><><><><><><><><><><><><><><

     atom              x              y              z
      Li1    +0.69814939    +0.69814939    +0.69814939
      Li2    -0.69814939    -0.69814939    +0.69814939
      Li3    -0.69814939    +0.69814939    -0.69814939
      Li4    +0.69823448    +0.69823448    -0.69823448
      Li5    -0.69823448    -0.69823448    -0.69823448
      Li6    +0.69814939    -0.69814939    -0.69814939
      Li7    +0.69823448    -0.69823448    +0.69823448
      Li8    -0.69823448    +0.69823448    +0.69823448
      Li9    +0.69814939    +0.69814939    +0.69814939
     Li10    -0.69814939    -0.69814939    +0.69814939
     Li11    -0.69814939    +0.69814939    -0.69814939
     Li12    +0.69823448    +0.69823448    -0.69823448
     Li13    -0.69823448    -0.69823448    -0.69823448
     Li14    +0.69814939    -0.69814939    -0.69814939
     Li15    +0.69823448    -0.69823448    +0.69823448
     Li16    -0.69823448    +0.69823448    +0.69823448
     Li17    +0.69814939    +0.69814939    +0.69814939
     Li18    -0.69814939    -0.69814939    +0.69814939
     Li19    -0.69814939    +0.69814939    -0.69814939
     Li20    +0.69823448    +0.69823448    -0.69823448
     Li21    -0.69823448    -0.69823448    -0.69823448
     Li22    +0.69814939    -0.69814939    -0.69814939
     Li23    +0.69823448    -0.69823448    +0.69823448
     Li24    -0.69823448    +0.69823448    +0.69823448
     Li25    +0.69814939    +0.69814939    +0.69814939
     Li26    -0.69814939    -0.69814939    +0.69814939
     Li27    -0.69814939    +0.69814939    -0.69814939
     Li28    +0.69823448    +0.69823448    -0.69823448
     Li29    -0.69823448    -0.69823448    -0.69823448
     Li30    +0.69814939    -0.69814939    -0.69814939
     Li31    +0.69823448    -0.69823448    +0.69823448
     Li32    -0.69823448    +0.69823448    +0.69823448
      Al1    +0.00006696    +0.00006696    +0.00006696
      Al2    -0.00006696    -0.00006696    +0.00006696
      Al3    -0.00006696    +0.00006696    -0.00006696
      Al4    +0.00006696    -0.00006696    -0.00006696
      Al5    +0.00006696    +0.00006696    +0.00006696
      Al6    -0.00006696    -0.00006696    +0.00006696
      Al7    -0.00006696    +0.00006696    -0.00006696
      Al8    +0.00006696    -0.00006696    -0.00006696
      Al9    +0.00006696    +0.00006696    +0.00006696
     Al10    -0.00006696    -0.00006696    +0.00006696
     Al11    -0.00006696    +0.00006696    -0.00006696
     Al12    +0.00006696    -0.00006696    -0.00006696
     Al13    +0.00006696    +0.00006696    +0.00006696
     Al14    -0.00006696    -0.00006696    +0.00006696
     Al15    -0.00006696    +0.00006696    -0.00006696
     Al16    +0.00006696    -0.00006696    -0.00006696


 ><><><><><><><><><><><><><><><><><><><><><><

 TOTAL-STRESS (KBAR)

 ><><><><><><><><><><><><><><><><><><><><><><

      -77.639563      +0.000000      +0.000000
       +0.000000     -77.639563      +0.000000
       +0.000000      +0.000000     -77.639563
 TOTAL-PRESSURE: -77.639563 KBAR


 --------------------------------------------
 !FINAL_ETOT_IS -1153.5227326519320741 eV
 --------------------------------------------






  |CLASS_NAME---------|NAME---------------|TIME(Sec)-----|CALLS----|AVG------|PER%-------
                                      total     +851.70434        21    +40.56   +100.00%
                 Driver         driver_line     +851.64670         1   +851.65    +99.99%
               PW_Basis      setuptransform       +4.98419         1     +4.98     +0.59%
                 mymath            heapsort       +1.06395     30386     +0.00     +0.12%
               PW_Basis  setup_struc_factor       +9.34302         1     +9.34     +1.10%
              ppcell_vl           init_vloc       +0.83926         1     +0.84     +0.10%
                 Charge          atomic_rho       +0.97129         1     +0.97     +0.11%
               PW_Basis          recip2real     +255.96801      3803     +0.07    +30.05%
               PW_Basis    gathers_scatterp      +35.16489      3803     +0.01     +4.13%
              Potential            init_pot       +3.77072         1     +3.77     +0.44%
              Potential  update_from_charge     +476.60404       292     +1.63    +55.96%
              Potential         cal_fixed_v       +0.20718         1     +0.21     +0.02%
               PotLocal         cal_fixed_v       +0.20398         1     +0.20     +0.02%
              Potential           cal_v_eff     +476.39517       292     +1.63    +55.93%
           H_Hartree_pw           v_hartree      +47.61069       292     +0.16     +5.59%
               PW_Basis          real2recip     +221.03548      3798     +0.06    +25.95%
               PW_Basis    gatherp_scatters      +23.10365      3798     +0.01     +2.71%
                  PotXC           cal_v_eff     +426.54826       292     +1.46    +50.08%
          XC_Functional                v_xc     +406.38512       146     +2.78    +47.71%
          XC_Functional          v_xc_libxc     +423.49877       292     +1.45    +49.72%
             ESolver_OF                 Run     +811.96273         1   +811.96    +95.33%
               Symmetry        rho_symmetry       +0.22757         1     +0.23     +0.03%
               KEDF_LKT       LKT_potential     +276.12202       291     +0.95    +32.42%
                KEDF_vW        vw_potential      +43.82440       291     +0.15     +5.15%
                 Forces       cal_force_loc       +4.91869         1     +4.92     +0.58%
                 Forces        cal_force_ew       +4.80685         1     +4.81     +0.56%
           OF_Stress_PW          cal_stress       +7.41991         1     +7.42     +0.87%
            Stress_Func          stress_ewa       +5.21351         1     +5.21     +0.61%
            Stress_Func          stress_gga       +1.20379         1     +1.20     +0.14%
            Stress_Func          stress_loc       +0.95179         1     +0.95     +0.11%
 ----------------------------------------------------------------------------------------

 CLASS_NAME---------|NAME---------------|MEMORY(MB)--------
                                         +78.2613
             PW_Basis           struc_fac       +22.2473
               Charge                 rho        +5.5618
               Charge            rho_save        +5.5618
               Charge                rhog        +5.5618
               Charge           rhog_save        +5.5618
               Charge               kin_r        +5.5618
               Charge          kin_r_save        +5.5618
               Charge            rho_core        +5.5618
               Charge           rhog_core        +5.5618
            Potential   v_effective_fixed        +5.5618
            Potential              vr_eff        +5.5618
 ----------------------------------------------------------

 Start  Time  : Mon May 15 13:22:30 2023
 Finish Time  : Mon May 15 13:36:41 2023
 Total  Time  : 0 h 14 mins 11 secs 
