 *********************************************************
 *                                                       *
 *                  WELCOME TO ABACUS v3.0               *
 *                                                       *
 *            'Atomic-orbital Based Ab-initio            *
 *                  Computation at UStc'                 *
 *                                                       *
 *          Website: http://abacus.ustc.edu.cn/          *
 *                                                       *
 *********************************************************
 Wed Dec 28 12:33:45 2022
 MAKE THE DIR         : OUT.blpstest/
Notice: symbol 'Li_locpsp' is not an element symbol!!!! set the covalent radius to be 0.
 UNIFORM GRID DIM     : 30 * 30 * 30
 UNIFORM GRID DIM(BIG): 30 * 30 * 30
func,idXC_GGA_X_PBE 101
func,idXC_GGA_C_PBE 130
 DONE(0.129979   SEC) : SETUP UNITCELL
 DONE(0.184628   SEC) : SYMMETRY
 DONE(0.536099   SEC) : INIT K-POINTS
 ---------------------------------------------------------
 Self-consistent calculations for electrons
 ---------------------------------------------------------
 SPIN    KPOINTS         PROCESSORS  
 1       256             1           
 ---------------------------------------------------------
 Use plane wave basis
 ---------------------------------------------------------
 ELEMENT NATOM       XC          
 Li      1           
 ---------------------------------------------------------
 Initial plane wave basis and FFT box
 ---------------------------------------------------------
 DONE(0.611136   SEC) : INIT PLANEWAVE
 MEMORY FOR PSI (MB)  : 20.2344
 DONE(0.624241   SEC) : LOCAL POTENTIAL
 DONE(0.624287   SEC) : NON-LOCAL POTENTIAL
 DONE(0.624363   SEC) : INIT BASIS
 START CHARGE      : atomic
 DONE(0.679269   SEC) : INIT SCF
 ITER   ETOT(eV)       EDIFF(eV)      DRHO       TIME(s)    
 CG1    -7.464494e+00  0.000000e+00   9.868e-03  2.556e+01  
 CG2    -7.546209e+00  -8.171500e-02  1.079e-03  6.732e+00  
 CG3    -7.546610e+00  -4.018114e-04  1.550e-07  7.904e+00  
 CG4    -7.546628e+00  -1.792568e-05  6.651e-08  1.656e+01  
 CG5    -7.546629e+00  -6.129997e-07  4.415e-09  1.027e+01  
 CG6    -7.546629e+00  -1.171901e-08  5.841e-11  7.276e+00  

  |CLASS_NAME---------|NAME---------------|TIME(Sec)-----|CALLS----|AVG------|PER%-------
                       total               74.995         17        4.4       1e+02     %
   Driver              driver_line         74.984         1         75        1e+02     %
   PW_Basis            setuptransform      0.11135        1         0.11      0.15      %
   ESolver_KS_PW       Run                 74.364         1         74        99        %
   Potential           update_from_charge  0.2536         7         0.036     0.34      %
   Potential           cal_v_eff           0.25225        7         0.036     0.34      %
   PotXC               cal_v_eff           0.232          7         0.033     0.31      %
   XC_Functional       v_xc                43.733         4         11        58        %
   XC_Functional       v_xc_libxc          0.23142        7         0.033     0.31      %
   HSolverPW           solve               74.025         7         11        99        %
   DiagoIterAssist     diagH_subspace      12.792         1536      0.0083    17        %
   OperatorPW          hPsi                69.782         36457     0.0019    93        %
   Operator            EkineticPW          0.21986        36457     6e-06     0.29      %
   Operator            VeffPW              69.367         36457     0.0019    92        %
   PW_Basis_K          recip2real          35.461         43698     0.00081   47        %
   PW_Basis_K          gathers_scatterp    2.5136         43698     5.8e-05   3.4       %
   PW_Basis_K          real2recip          30.89          42601     0.00073   41        %
   PW_Basis_K          gatherp_scatters    0.73296        42601     1.7e-05   0.98      %
   DiagoIterAssist     LAPACK_subspace     0.10076        1536      6.6e-05   0.13      %
   DiagoCG             diag_once           59.694         1792      0.033     80        %
   ElecStatePW         psiToRho            0.94825        7         0.14      1.3       %
 ----------------------------------------------------------------------------------------

 START  Time  : Wed Dec 28 12:33:45 2022
 FINISH Time  : Wed Dec 28 12:35:00 2022
 TOTAL  Time  : 75
 SEE INFORMATION IN : OUT.blpstest/
