                                                                                     
                             WELCOME TO ABACUS v3.0                                  
                                                                                     
               'Atomic-orbital Based Ab-initio Computation at UStc'                  
                                                                                     
                     Website: http://abacus.ustc.edu.cn/                             
                                                                                     
    Version: Parallel, in development
    Processor Number is 1
    Start Time is Mon May 15 11:37:05 2023
                                                                                     
 ------------------------------------------------------------------------------------

 READING GENERAL INFORMATION
                           global_out_dir = OUT.oftest/
                           global_in_card = INPUT
                               pseudo_dir = 
                              orbital_dir = 
                                    DRANK = 1
                                    DSIZE = 1
                                   DCOLOR = 1
                                    GRANK = 1
                                    GSIZE = 1
 The esolver type has been set to : ofdft




 >>>>>>>>>>>>>>>>>>>>>>>>>>>>>>>>>>>>>>>>>>>>>>>>>>>>>>>>>>>>>>>>>>>>>>
 |                                                                    |
 | Reading atom information in unitcell:                              |
 | From the input file and the structure file we know the number of   |
 | different elments in this unitcell, then we list the detail        |
 | information for each element, especially the zeta and polar atomic |
 | orbital number for each element. The total atom number is counted. |
 | We calculate the nearest atom distance for each atom and show the  |
 | Cartesian and Direct coordinates for each atom. We list the file   |
 | address for atomic orbitals. The volume and the lattice vectors    |
 | in real and reciprocal space is also shown.                        |
 |                                                                    |
 <<<<<<<<<<<<<<<<<<<<<<<<<<<<<<<<<<<<<<<<<<<<<<<<<<<<<<<<<<<<<<<<<<<<<<




 READING UNITCELL INFORMATION
                                    ntype = 3
                 atom label for species 1 = Li
                 atom label for species 2 = Mg
                 atom label for species 3 = Al
                  lattice constant (Bohr) = 1.88973
              lattice constant (Angstrom) = 1

 READING ATOM TYPE 1
                               atom label = Li
                      L=0, number of zeta = 1
                      L=1, number of zeta = 1
                      L=2, number of zeta = 1
             number of atom for this type = 2
                      start magnetization = FALSE
                      start magnetization = FALSE

 READING ATOM TYPE 2
                               atom label = Mg
                      L=0, number of zeta = 1
                      L=1, number of zeta = 1
                      L=2, number of zeta = 1
             number of atom for this type = 32
                      start magnetization = FALSE
                      start magnetization = FALSE
                      start magnetization = FALSE
                      start magnetization = FALSE
                      start magnetization = FALSE
                      start magnetization = FALSE
                      start magnetization = FALSE
                      start magnetization = FALSE
                      start magnetization = FALSE
                      start magnetization = FALSE
                      start magnetization = FALSE
                      start magnetization = FALSE
                      start magnetization = FALSE
                      start magnetization = FALSE
                      start magnetization = FALSE
                      start magnetization = FALSE
                      start magnetization = FALSE
                      start magnetization = FALSE
                      start magnetization = FALSE
                      start magnetization = FALSE
                      start magnetization = FALSE
                      start magnetization = FALSE
                      start magnetization = FALSE
                      start magnetization = FALSE
                      start magnetization = FALSE
                      start magnetization = FALSE
                      start magnetization = FALSE
                      start magnetization = FALSE
                      start magnetization = FALSE
                      start magnetization = FALSE
                      start magnetization = FALSE
                      start magnetization = FALSE

 READING ATOM TYPE 3
                               atom label = Al
                      L=0, number of zeta = 1
                      L=1, number of zeta = 1
                      L=2, number of zeta = 1
             number of atom for this type = 24
                      start magnetization = FALSE
                      start magnetization = FALSE
                      start magnetization = FALSE
                      start magnetization = FALSE
                      start magnetization = FALSE
                      start magnetization = FALSE
                      start magnetization = FALSE
                      start magnetization = FALSE
                      start magnetization = FALSE
                      start magnetization = FALSE
                      start magnetization = FALSE
                      start magnetization = FALSE
                      start magnetization = FALSE
                      start magnetization = FALSE
                      start magnetization = FALSE
                      start magnetization = FALSE
                      start magnetization = FALSE
                      start magnetization = FALSE
                      start magnetization = FALSE
                      start magnetization = FALSE
                      start magnetization = FALSE
                      start magnetization = FALSE
                      start magnetization = FALSE
                      start magnetization = FALSE

                        TOTAL ATOM NUMBER = 58

 DIRECT COORDINATES
         atom                   x                   y                   z                 mag                  vx                  vy                  vz
     taud_Li1             0.31596                   0            0.709103                   0                   0                   0                   0
     taud_Li2             0.81596                 0.5            0.709103                   0                   0                   0                   0
     taud_Mg1            0.603102                   0            0.288207                   0                   0                   0                   0
     taud_Mg2            0.008862                   0            0.656659                   0                   0                   0                   0
     taud_Mg3             0.99926                   0            0.998672                   0                   0                   0                   0
     taud_Mg4             0.34315                   0            0.342919                   0                   0                   0                   0
     taud_Mg5            0.539336            0.859935            0.997193                   0                   0                   0                   0
     taud_Mg6            0.442202            0.843326            0.601943                   0                   0                   0                   0
     taud_Mg7            0.841741            0.842487            0.397791                   0                   0                   0                   0
     taud_Mg8             0.82743            0.827614            0.000932                   0                   0                   0                   0
     taud_Mg9            0.198969            0.801993            0.685403                   0                   0                   0                   0
    taud_Mg10            0.514958            0.801028            0.316445                   0                   0                   0                   0
    taud_Mg11            0.514958            0.198972            0.316445                   0                   0                   0                   0
    taud_Mg12            0.198969            0.198007            0.685403                   0                   0                   0                   0
    taud_Mg13             0.82743            0.172386            0.000932                   0                   0                   0                   0
    taud_Mg14            0.841741            0.157513            0.397791                   0                   0                   0                   0
    taud_Mg15            0.442202            0.156674            0.601943                   0                   0                   0                   0
    taud_Mg16            0.539336            0.140065            0.997193                   0                   0                   0                   0
    taud_Mg17            0.103102                 0.5            0.288207                   0                   0                   0                   0
    taud_Mg18            0.508862                 0.5            0.656659                   0                   0                   0                   0
    taud_Mg19             0.49926                 0.5            0.998672                   0                   0                   0                   0
    taud_Mg20             0.84315                 0.5            0.342919                   0                   0                   0                   0
    taud_Mg21            0.039336            0.359935            0.997193                   0                   0                   0                   0
    taud_Mg22            0.942202            0.343326            0.601943                   0                   0                   0                   0
    taud_Mg23            0.341741            0.342487            0.397791                   0                   0                   0                   0
    taud_Mg24             0.32743            0.327614            0.000932                   0                   0                   0                   0
    taud_Mg25            0.698969            0.301993            0.685403                   0                   0                   0                   0
    taud_Mg26            0.014958            0.301028            0.316445                   0                   0                   0                   0
    taud_Mg27            0.014958            0.698972            0.316445                   0                   0                   0                   0
    taud_Mg28            0.698969            0.698007            0.685403                   0                   0                   0                   0
    taud_Mg29             0.32743            0.672386            0.000932                   0                   0                   0                   0
    taud_Mg30            0.341741            0.657513            0.397791                   0                   0                   0                   0
    taud_Mg31            0.942202            0.656674            0.601943                   0                   0                   0                   0
    taud_Mg32            0.039336            0.640065            0.997193                   0                   0                   0                   0
     taud_Al1            0.815017                   0            0.180003                   0                   0                   0                   0
     taud_Al2            0.631226                   0            0.817716                   0                   0                   0                   0
     taud_Al3            0.276264            0.909176             0.00128                   0                   0                   0                   0
     taud_Al4           0.0941675            0.907608            0.368656                   0                   0                   0                   0
     taud_Al5            0.727124            0.907236            0.634622                   0                   0                   0                   0
     taud_Al6             0.49767            0.316435            0.815174                   0                   0                   0                   0
     taud_Al7            0.681857            0.316316            0.183922                   0                   0                   0                   0
     taud_Al8            0.681857            0.683684            0.183922                   0                   0                   0                   0
     taud_Al9             0.49767            0.683565            0.815174                   0                   0                   0                   0
    taud_Al10            0.727124           0.0927635            0.634622                   0                   0                   0                   0
    taud_Al11           0.0941675           0.0923915            0.368656                   0                   0                   0                   0
    taud_Al12            0.276264            0.090824             0.00128                   0                   0                   0                   0
    taud_Al13            0.315017                 0.5            0.180003                   0                   0                   0                   0
    taud_Al14            0.131226                 0.5            0.817716                   0                   0                   0                   0
    taud_Al15            0.776264            0.409176             0.00128                   0                   0                   0                   0
    taud_Al16            0.594167            0.407608            0.368656                   0                   0                   0                   0
    taud_Al17            0.227124            0.407236            0.634622                   0                   0                   0                   0
    taud_Al18             0.99767            0.816435            0.815174                   0                   0                   0                   0
    taud_Al19            0.181857            0.816316            0.183922                   0                   0                   0                   0
    taud_Al20            0.181857            0.183684            0.183922                   0                   0                   0                   0
    taud_Al21             0.99767            0.183565            0.815174                   0                   0                   0                   0
    taud_Al22            0.227124            0.592764            0.634622                   0                   0                   0                   0
    taud_Al23            0.594167            0.592392            0.368656                   0                   0                   0                   0
    taud_Al24            0.776264            0.590824             0.00128                   0                   0                   0                   0


                          Volume (Bohr^3) = 7841.17
                             Volume (A^3) = 1161.94

 Lattice vectors: (Cartesian coordinate: in unit of a_0)
                   +0            +10.5217                  +0
             +14.7968                  +0                  +0
                   +0            -5.23472            -7.46331
 Reciprocal vectors: (Cartesian coordinate: in unit of 2 pi/a_0)
                   +0          +0.0950418          -0.0666618
           +0.0675822                  -0                  +0
                   +0                  -0           -0.133989




 >>>>>>>>>>>>>>>>>>>>>>>>>>>>>>>>>>>>>>>>>>>>>>>>>>>>>>>>>>>>>>>>>>>>>>
 |                                                                    |
 | Reading pseudopotentials files:                                    |
 | The pseudopotential file is in UPF format. The 'NC' indicates that |
 | the type of pseudopotential is 'norm conserving'. Functional of    |
 | exchange and correlation is decided by 4 given parameters in UPF   |
 | file.  We also read in the 'core correction' if there exists.      |
 | Also we can read the valence electrons number and the maximal      |
 | angular momentum used in this pseudopotential. We also read in the |
 | trail wave function, trail atomic density and local-pseudopotential|
 | on logrithmic grid. The non-local pseudopotential projector is also|
 | read in if there is any.                                           |
 |                                                                    |
 <<<<<<<<<<<<<<<<<<<<<<<<<<<<<<<<<<<<<<<<<<<<<<<<<<<<<<<<<<<<<<<<<<<<<<




                PAO radial cut off (Bohr) = 16

 Read in pseudopotential file is li.gga.psp.1
                     pseudopotential type = 
          exchange-correlation functional = XC_GGA_X_PBE+XC_GGA_C_PBE
                 nonlocal core correction = 0
                        valence electrons = 1
                                     lmax = 0
                           number of zeta = 0
                     number of projectors = 0
                PAO radial cut off (Bohr) = 16

 Read in pseudopotential file is mg.gga.psp
                     pseudopotential type = 
          exchange-correlation functional = XC_GGA_X_PBE+XC_GGA_C_PBE
                 nonlocal core correction = 0
                        valence electrons = 2
                                     lmax = 0
                           number of zeta = 0
                     number of projectors = 0
                PAO radial cut off (Bohr) = 16

 Read in pseudopotential file is al.gga.psp
                     pseudopotential type = 
          exchange-correlation functional = XC_GGA_X_PBE+XC_GGA_C_PBE
                 nonlocal core correction = 0
                        valence electrons = 3
                                     lmax = 0
                           number of zeta = 0
                     number of projectors = 0
Notice: symbol 'Li_locpsp' is not an element symbol!!!! set the covalent radius to be 0.
Notice: symbol 'mg_locpsp' is not an element symbol!!!! set the covalent radius to be 0.
Notice: symbol 'al_locpsp' is not an element symbol!!!! set the covalent radius to be 0.
     initial pseudo atomic orbital number = 0
                                   NLOCAL = 522




 >>>>>>>>>>>>>>>>>>>>>>>>>>>>>>>>>>>>>>>>>>>>>>>>>>>>>>>>>>>>>>>>>>>>>>
 |                                                                    |
 | Setup plane waves of charge/potential:                             |
 | Use the energy cutoff and the lattice vectors to generate the      |
 | dimensions of FFT grid. The number of FFT grid on each processor   |
 | is 'nrxx'. The number of plane wave basis in reciprocal space is   |
 | different for charege/potential and wave functions. We also set    |
 | the 'sticks' for the parallel of FFT. The number of plane waves    |
 | is 'npw' in each processor.                                        |
 <<<<<<<<<<<<<<<<<<<<<<<<<<<<<<<<<<<<<<<<<<<<<<<<<<<<<<<<<<<<<<<<<<<<<<





 SETUP THE PLANE WAVE BASIS
 energy cutoff for charge/potential (unit:Ry) = 235.196
          [fft grid for charge/potential] = 100, 144, 90
                      [fft grid division] = 1, 1, 1
      [big fft grid for charge/potential] = 100, 144, 90
                                     nbxx = 1296000
                                     nrxx = 1296000

 SETUP PLANE WAVES FOR CHARGE/POTENTIAL
                    number of plane waves = 1296000
                         number of sticks = 14400

 PARALLEL PW FOR CHARGE/POTENTIAL
     PROC   COLUMNS(POT)             PW
        1          14400        1296000
 --------------- sum -------------------
        1          14400        1296000
                            number of |g| = 335417
                                  max |g| = 133.918
                                  min |g| = 0

 SETUP THE ELECTRONS NUMBER
            electron number of element Li = 1
      total electron number of element Li = 2
            electron number of element Mg = 2
      total electron number of element Mg = 64
            electron number of element Al = 3
      total electron number of element Al = 72
            AUTOSET number of electrons:  = 138
 DONE : SETUP UNITCELL Time : 10.0781 (SEC)





 >>>>>>>>>>>>>>>>>>>>>>>>>>>>>>>>>>>>>>>>>>>>>>>>>>>>>>>>>>>>>>>>>>>>>>
 |                                                                    |
 | Doing symmetry analysis:                                           |
 | We calculate the norm of 3 vectors and the angles between them,    |
 | the type of Bravais lattice is given. We can judge if the unticell |
 | is a primitive cell. Finally we give the point group operation for |
 | this unitcell. We we use the point group operations to do symmetry |
 | analysis on given k-point mesh and the charge density.             |
 |                                                                    |
 <<<<<<<<<<<<<<<<<<<<<<<<<<<<<<<<<<<<<<<<<<<<<<<<<<<<<<<<<<<<<<<<<<<<<<




 LATTICE VECTORS: (CARTESIAN COORDINATE: IN UNIT OF A0)
                   +0            +10.5217                  +0
             +14.7968                  +0                  +0
                   +0            -5.23472            -7.46331
                       right hand lattice = 1
                                   NORM_A = 10.5217
                                   NORM_B = 14.7968
                                   NORM_C = 9.1161
                           ALPHA (DEGREE) = 90
                           BETA  (DEGREE) = 90
                           GAMMA (DEGREE) = 125.046
                             BRAVAIS TYPE = 12
                     BRAVAIS LATTICE NAME = 12. Monoclinic P (simple)
                                    IBRAV = 12
                                  BRAVAIS = SIMPLE MONOLINIC CELL
                       LATTICE CONSTANT A = 14.7968
                                B/A RATIO = 0.616086
                                C/A RATIO = 0.711079
                                COS(BETA) = 0
                                    ibrav = 12
                        ROTATION MATRICES = 4
              PURE POINT GROUP OPERATIONS = 4
                   SPACE GROUP OPERATIONS = 4
                                       C2 = 1
                                       C3 = 0
                                       C4 = 0
                                       C6 = 0
                                       S1 = 1
                                       S3 = 0
                                       S4 = 0
                                       S6 = 0
                              POINT GROUP = C_2h
Warning : If the optimal symmetric configuration is not the input configuration, 
you have to manually change configurations, ABACUS would only calculate the input structure.
 DONE : SYMMETRY Time : 10.1895 (SEC)





 >>>>>>>>>>>>>>>>>>>>>>>>>>>>>>>>>>>>>>>>>>>>>>>>>>>>>>>>>>>>>>>>>>>>>>
 |                                                                    |
 | Setup K-points                                                     |
 | We setup the k-points according to input parameters.               |
 | The reduced k-points are set according to symmetry operations.     |
 | We treat the spin as another set of k-points.                      |
 |                                                                    |
 <<<<<<<<<<<<<<<<<<<<<<<<<<<<<<<<<<<<<<<<<<<<<<<<<<<<<<<<<<<<<<<<<<<<<<





 SETUP K-POINTS
                                    nspin = 1
                   Input type of k points = Monkhorst-Pack(Gamma)
                                   nkstot = 1
                               nkstot_ibz = 1
      IBZ             DirectX             DirectY             DirectZ              Weight    ibz2bz
        1                   0                   0                   0                   1         0
                               nkstot now = 1

  KPOINTS            DIRECT_X            DIRECT_Y            DIRECT_Z              WEIGHT
        1                   0                   0                   0                   1

           k-point number in this process = 1
       minimum distributed K point number = 1

  KPOINTS         CARTESIAN_X         CARTESIAN_Y         CARTESIAN_Z              WEIGHT
        1                   0                   0                   0                   2

  KPOINTS            DIRECT_X            DIRECT_Y            DIRECT_Z              WEIGHT
        1                   0                   0                   0                   2
 DONE : INIT K-POINTS Time : 10.1905 (SEC)

 DONE : INIT BASIS Time : 26.8456 (SEC)

 DONE : INIT PHI Time : 26.8459 (SEC)


 SETUP NONLOCAL PSEUDOPOTENTIALS IN PLANE WAVE BASIS
 Li non-local projectors:
 Mg non-local projectors:
 Al non-local projectors:
      TOTAL NUMBER OF NONLOCAL PROJECTORS = 0

 nhm = 0, not allocate some matrix. DONE : LOCAL POTENTIAL Time : 159.854 (SEC)


 Init Non-Local PseudoPotential table : 
 Init Non-Local-Pseudopotential done.
 DONE : NON-LOCAL POTENTIAL Time : 159.858 (SEC)

Successful completion of Potential's registration : local
Successful completion of Potential's registration : hartree
Successful completion of Potential's registration : xc
                                 init_chg = atomic
 DONE : INIT POTENTIAL Time : 271.751 (SEC)

 DONE : INIT OPTIMIZATION Time : 271.772 (SEC)

 DONE : INIT KEDF Time : 271.863 (SEC)


 charge density convergence is achieved
 final etot is -2166.61 eV



 ><><><><><><><><><><><><><><><><><><><><><><

    TOTAL-FORCE (eV/Angstrom)

 ><><><><><><><><><><><><><><><><><><><><><><

     atom              x              y              z
      Li1              0    -0.16602535    -0.25697086
      Li2              0    -0.16602535    -0.25697086
      Mg1              0    -0.06046145    +0.19354772
      Mg2              0    +0.03477734    +0.10943483
      Mg3              0    +0.03943340    +0.00002734
      Mg4              0    +0.05777891    -0.13469649
      Mg5    +0.13521313    +0.03189902    -0.02433359
      Mg6    -0.07455222    -0.06991460    +0.13431431
      Mg7    -0.02706971    -0.07393800    -0.14278171
      Mg8    -0.14399328    -0.10462963    +0.02331724
      Mg9    -0.11036783    +0.09800112    +0.04687544
     Mg10    -0.10992372    +0.10264502    -0.04482553
     Mg11    +0.10992372    +0.10264502    -0.04482553
     Mg12    +0.11036783    +0.09800112    +0.04687544
     Mg13    +0.14399328    -0.10462963    +0.02331724
     Mg14    +0.02706971    -0.07393800    -0.14278171
     Mg15    +0.07455222    -0.06991460    +0.13431431
     Mg16    -0.13521313    +0.03189902    -0.02433359
     Mg17              0    -0.06046145    +0.19354772
     Mg18              0    +0.03477734    +0.10943483
     Mg19              0    +0.03943340    +0.00002734
     Mg20              0    +0.05777891    -0.13469649
     Mg21    +0.13521313    +0.03189902    -0.02433359
     Mg22    -0.07455222    -0.06991460    +0.13431431
     Mg23    -0.02706971    -0.07393800    -0.14278171
     Mg24    -0.14399328    -0.10462963    +0.02331724
     Mg25    -0.11036783    +0.09800112    +0.04687544
     Mg26    -0.10992372    +0.10264502    -0.04482553
     Mg27    +0.10992372    +0.10264502    -0.04482553
     Mg28    +0.11036783    +0.09800112    +0.04687544
     Mg29    +0.14399328    -0.10462963    +0.02331724
     Mg30    +0.02706971    -0.07393800    -0.14278171
     Mg31    +0.07455222    -0.06991460    +0.13431431
     Mg32    -0.13521313    +0.03189902    -0.02433359
      Al1              0    +0.06857947    +0.03163647
      Al2              0    +0.19363789    -0.05933814
      Al3    +0.06067906    -0.04635634    +0.04436207
      Al4    +0.05244802    -0.00609497    +0.11451433
      Al5    +0.05782368    -0.00683164    -0.06823033
      Al6    +0.05918826    +0.01458920    -0.03657180
      Al7    +0.05595339    -0.02322930    +0.01153913
      Al8    -0.05595339    -0.02322930    +0.01153913
      Al9    -0.05918826    +0.01458920    -0.03657180
     Al10    -0.05782368    -0.00683164    -0.06823033
     Al11    -0.05244802    -0.00609497    +0.11451433
     Al12    -0.06067906    -0.04635634    +0.04436207
     Al13              0    +0.06857947    +0.03163647
     Al14              0    +0.19363789    -0.05933814
     Al15    +0.06067906    -0.04635634    +0.04436207
     Al16    +0.05244802    -0.00609497    +0.11451433
     Al17    +0.05782368    -0.00683164    -0.06823033
     Al18    +0.05918826    +0.01458920    -0.03657180
     Al19    +0.05595339    -0.02322930    +0.01153913
     Al20    -0.05595339    -0.02322930    +0.01153913
     Al21    -0.05918826    +0.01458920    -0.03657180
     Al22    -0.05782368    -0.00683164    -0.06823033
     Al23    -0.05244802    -0.00609497    +0.11451433
     Al24    -0.06067906    -0.04635634    +0.04436207


 ><><><><><><><><><><><><><><><><><><><><><><

 TOTAL-STRESS (KBAR)

 ><><><><><><><><><><><><><><><><><><><><><><

      +14.838460      +0.000000      +0.000000
       +0.000000     +13.869545      +0.653132
       +0.000000      +0.653132     +14.369820
 TOTAL-PRESSURE: +14.359275 KBAR


 --------------------------------------------
 !FINAL_ETOT_IS -2166.6125049764486903 eV
 --------------------------------------------






  |CLASS_NAME---------|NAME---------------|TIME(Sec)-----|CALLS----|AVG------|PER%-------
                                      total    +1357.46330        21    +64.64   +100.00%
                 Driver         driver_line    +1357.40762         1  +1357.41   +100.00%
               PW_Basis      setuptransform       +5.96770         1     +5.97     +0.44%
                 mymath            heapsort       +3.59939       804     +0.00     +0.27%
               PW_Basis  setup_struc_factor      +16.65459         1    +16.65     +1.23%
              ppcell_vl           init_vloc     +133.00773         1   +133.01     +9.80%
                 Charge          atomic_rho     +103.82493         1   +103.82     +7.65%
               PW_Basis          recip2real     +228.99942      2006     +0.11    +16.87%
               PW_Basis    gathers_scatterp      +26.62442      2006     +0.01     +1.96%
              Potential            init_pot       +7.71436         1     +7.71     +0.57%
              Potential  update_from_charge     +631.82975       222     +2.85    +46.54%
              Potential         cal_fixed_v       +1.05042         1     +1.05     +0.08%
               PotLocal         cal_fixed_v       +1.04381         1     +1.04     +0.08%
              Potential           cal_v_eff     +630.77825       222     +2.84    +46.47%
           H_Hartree_pw           v_hartree      +62.69856       222     +0.28     +4.62%
               PW_Basis          real2recip     +280.25697      2447     +0.11    +20.65%
               PW_Basis    gatherp_scatters      +21.22612      2447     +0.01     +1.56%
                  PotXC           cal_v_eff     +565.62150       222     +2.55    +41.67%
          XC_Functional                v_xc     +483.82269       111     +4.36    +35.64%
          XC_Functional          v_xc_libxc     +562.03411       222     +2.53    +41.40%
             ESolver_OF                 Run     +965.96406         1   +965.96    +71.16%
             H_Ewald_pw       compute_ewald       +0.12588         1     +0.13     +0.01%
                KEDF_TF        tf_potential      +45.96382       221     +0.21     +3.39%
                KEDF_WT        wt_potential     +219.39182       221     +0.99    +16.16%
                KEDF_vW        vw_potential      +55.18046       221     +0.25     +4.06%
                 Forces       cal_force_loc       +6.02165         1     +6.02     +0.44%
                 Forces        cal_force_ew       +4.97868         1     +4.98     +0.37%
           OF_Stress_PW          cal_stress     +107.81226         1   +107.81     +7.94%
            Stress_Func          stress_ewa       +5.45007         1     +5.45     +0.40%
            Stress_Func          stress_gga       +2.04173         1     +2.04     +0.15%
            Stress_Func          stress_loc     +100.24148         1   +100.24     +7.38%
 ----------------------------------------------------------------------------------------

 CLASS_NAME---------|NAME---------------|MEMORY(MB)--------
                                         +158.7945
             PW_Basis           struc_fac       +59.3262
               Charge                 rho        +9.8877
               Charge            rho_save        +9.8877
               Charge                rhog        +9.8877
               Charge           rhog_save        +9.8877
               Charge               kin_r        +9.8877
               Charge          kin_r_save        +9.8877
               Charge            rho_core        +9.8877
               Charge           rhog_core        +9.8877
            Potential   v_effective_fixed        +9.8877
            Potential              vr_eff        +9.8877
 ----------------------------------------------------------

 Start  Time  : Mon May 15 11:37:05 2023
 Finish Time  : Mon May 15 11:59:42 2023
 Total  Time  : 0 h 22 mins 37 secs 
