 *********************************************************
 *                                                       *
 *                  WELCOME TO ABACUS v3.0               *
 *                                                       *
 *            'Atomic-orbital Based Ab-initio            *
 *                  Computation at UStc'                 *
 *                                                       *
 *          Website: http://abacus.ustc.edu.cn/          *
 *                                                       *
 *********************************************************
 Wed Apr 26 05:32:37 2023
 MAKE THE DIR         : OUT.oftest/
Notice: symbol 'mg_locpsp' is not an element symbol!!!! set the covalent radius to be 0.
 UNIFORM GRID DIM     : 45 * 45 * 45
 UNIFORM GRID DIM(BIG): 45 * 45 * 45
func,idXC_GGA_X_PBE 101
func,idXC_GGA_C_PBE 130
 DONE(0.276123   SEC) : SETUP UNITCELL
 DONE(0.327627   SEC) : SYMMETRY
 DONE(0.327875   SEC) : INIT K-POINTS
 ---------------------------------------------------------
 Self-consistent calculations for electrons
 ---------------------------------------------------------
 SPIN    KPOINTS         PROCESSORS  
 1       1               1           
 ---------------------------------------------------------
 Use plane wave basis
 ---------------------------------------------------------
 ELEMENT NATOM       XC          
 Mg      1           
 ---------------------------------------------------------
 Initial plane wave basis and FFT box
 ---------------------------------------------------------
 DONE(0.332179   SEC) : INIT BASIS
 DONE(0.332213   SEC) : INIT PHI
 DONE(0.454999   SEC) : LOCAL POTENTIAL
 DONE(0.45504    SEC) : NON-LOCAL POTENTIAL
 START CHARGE      : atomic
 DONE(0.768214   SEC) : INIT POTENTIAL
 DONE(0.768818   SEC) : INIT OPTIMIZATION
Default type: double
nnode = 10
nlayer = 3
feg_net_F = 0.540933
 DONE(0.835783   SEC) : INIT KEDF
======================== Running OFDFT ========================
Iter        Etot(Ha)          Theta      PotNorm     deltaE(Ha)
0     -8.342622451236e-01   2.000e-01   1.284e-01   -8.343e-01  
1     -8.831119402429e-01   8.595e-02   1.211e-01   -4.885e-02  
2     -8.876931366005e-01   3.026e-02   5.524e-02   -4.581e-03  
3     -8.879915152853e-01   3.431e-03   2.154e-02   -2.984e-04  
4     -8.880888518729e-01   2.029e-03   2.345e-02   -9.734e-05  
5     -8.882189056568e-01   4.054e-03   2.741e-02   -1.301e-04  
6     -8.883596932966e-01   6.245e-03   5.730e-03   -1.408e-04  
7     -8.883622452518e-01   2.407e-04   2.128e-03   -2.552e-06  
8     -8.883650341977e-01   7.593e-04   2.623e-03   -2.789e-06  
9     -8.883658790364e-01   1.293e-04   1.035e-03   -8.448e-07  
10    -8.883672467575e-01   7.572e-04   2.330e-04   -1.368e-06  
11    -8.883672927227e-01   1.228e-04   2.251e-04   -4.597e-08  
12    -8.883673019268e-01   3.390e-05   9.889e-05   -9.204e-09  

  |CLASS_NAME---------|NAME---------------|TIME(Sec)-----|CALLS----|AVG------|PER%-------
                       total               812.78         21        39        1e+02     %
   Driver              driver_line         812.77         1         8.1e+02   1e+02     %
   PW_Basis            setuptransform      0.23608        1         0.24      0.029     %
   ppcell_vl           init_vloc           0.12259        1         0.12      0.015     %
   Charge              atomic_rho          0.12863        1         0.13      0.016     %
   PW_Basis            recip2real          21.003         6348      0.0033    2.6       %
   PW_Basis            gathers_scatterp    1.8959         6348      0.0003    0.23      %
   Potential           init_pot            0.17884        1         0.18      0.022     %
   Potential           update_from_charge  31.263         318       0.098     3.8       %
   Potential           cal_v_eff           31.255         318       0.098     3.8       %
   H_Hartree_pw        v_hartree           2.4736         318       0.0078    0.3       %
   PW_Basis            real2recip          20.88          6348      0.0033    2.6       %
   PW_Basis            gatherp_scatters    1.2819         6348      0.0002    0.16      %
   PotXC               cal_v_eff           28.682         318       0.09      3.5       %
   XC_Functional       v_xc                404.68         159       2.5       50        %
   XC_Functional       v_xc_libxc          28.636         318       0.09      3.5       %
   ESolver_OF          Run                 811.94         1         8.1e+02   1e+02     %
   KEDF_vW             vw_potential        2.4009         317       0.0076    0.3       %
 ----------------------------------------------------------------------------------------

 START  Time  : Wed Apr 26 05:32:37 2023
 FINISH Time  : Wed Apr 26 05:46:10 2023
 TOTAL  Time  : 8.1e+02
 SEE INFORMATION IN : OUT.oftest/
