 *********************************************************
 *                                                       *
 *                  WELCOME TO ABACUS v3.0               *
 *                                                       *
 *            'Atomic-orbital Based Ab-initio            *
 *                  Computation at UStc'                 *
 *                                                       *
 *          Website: http://abacus.ustc.edu.cn/          *
 *                                                       *
 *********************************************************
 Tue May  2 12:50:59 2023
 MAKE THE DIR         : OUT.blpstest/
Notice: symbol 'mg_locpsp' is not an element symbol!!!! set the covalent radius to be 0.
 UNIFORM GRID DIM     : 32 * 32 * 32
 UNIFORM GRID DIM(BIG): 32 * 32 * 32
func,idXC_GGA_X_PBE 101
func,idXC_GGA_C_PBE 130
 DONE(0.174724   SEC) : SETUP UNITCELL
 DONE(0.229583   SEC) : SYMMETRY
 DONE(0.229793   SEC) : INIT K-POINTS
 ---------------------------------------------------------
 Self-consistent calculations for electrons
 ---------------------------------------------------------
 SPIN    KPOINTS         PROCESSORS  
 1       1               1           
 ---------------------------------------------------------
 Use plane wave basis
 ---------------------------------------------------------
 ELEMENT NATOM       XC          
 Mg      1           
 ---------------------------------------------------------
 Initial plane wave basis and FFT box
 ---------------------------------------------------------
 DONE(0.23139    SEC) : INIT BASIS
 DONE(0.231415   SEC) : INIT PHI
 DONE(0.291197   SEC) : LOCAL POTENTIAL
 DONE(0.29123    SEC) : NON-LOCAL POTENTIAL
 START CHARGE      : atomic
 DONE(0.408915   SEC) : INIT POTENTIAL
 DONE(0.409084   SEC) : INIT OPTIMIZATION
Default type: double
 DONE(0.411288   SEC) : INIT KEDF
======================== Running OFDFT ========================
Iter        Etot(Ha)          Theta      PotNorm     deltaE(Ha)
0     -8.494575019405e-01   2.000e-01   1.019e-01   -8.495e-01  
1     -8.894565360482e-01   1.002e-01   5.287e-02   -4.000e-02  
2     -8.909511183089e-01   1.435e-02   4.310e-03   -1.495e-03  
3     -8.909613799771e-01   1.191e-03   3.537e-03   -1.026e-05  
4     -8.909695292362e-01   1.865e-03   2.048e-04   -8.149e-06  
5     -8.909695498462e-01   6.794e-05   9.450e-05   -2.061e-08  
6     -8.909695549755e-01   4.536e-05   7.664e-06   -5.129e-09  

  |CLASS_NAME---------|NAME---------------|TIME(Sec)-----|CALLS----|AVG------|PER%-------
                       total               26.934         21        1.3       1e+02     %
   Driver              driver_line         26.919         1         27        1e+02     %
   PW_Basis            setuptransform      0.14492        1         0.14      0.54      %
   PW_Basis            recip2real          5.4442         2075      0.0026    20        %
   PW_Basis            gathers_scatterp    1.0648         2075      0.00051   4         %
   Potential           update_from_charge  16.035         160       0.1       60        %
   Potential           cal_v_eff           16.031         160       0.1       60        %
   H_Hartree_pw        v_hartree           1.2504         160       0.0078    4.6       %
   PW_Basis            real2recip          5.4336         2075      0.0026    20        %
   PW_Basis            gatherp_scatters    0.8205         2075      0.0004    3         %
   PotXC               cal_v_eff           14.673         160       0.092     54        %
   XC_Functional       v_xc                13.263         80        0.17      49        %
   XC_Functional       v_xc_libxc          14.426         160       0.09      54        %
   ESolver_OF          Run                 26.518         1         27        98        %
   KEDF_LKT            LKT_potential       8.6373         159       0.054     32        %
   KEDF_vW             vw_potential        1.1009         159       0.0069    4.1       %
 ----------------------------------------------------------------------------------------

 START  Time  : Tue May  2 12:50:59 2023
 FINISH Time  : Tue May  2 12:51:26 2023
 TOTAL  Time  : 27
 SEE INFORMATION IN : OUT.blpstest/
