 *********************************************************
 *                                                       *
 *                  WELCOME TO ABACUS                    *
 *                                                       *
 *            'Atomic-orbital Based Ab-initio            *
 *                  Computation at UStc'                 *
 *                                                       *
 *          Website: http://abacus.ustc.edu.cn/          *
 *                                                       *
 *********************************************************
 Thu Oct  6 16:22:00 2022
 MAKE THE DIR         : OUT.ABACUS/
 dft_functional readin is: scan
 dft_functional in pseudopot file is: PBE
In Pseudopot_upf::read_pseudo_header : dft_functional from INPUT does not match that in pseudopot file
Please make sure this is what you need
 dft_functional readin is: scan
 dft_functional in pseudopot file is: PBE
In Pseudopot_upf::read_pseudo_header : dft_functional from INPUT does not match that in pseudopot file
Please make sure this is what you need
functional name not recognized!
 
 !!!!!!!!!!!!!!!!!!!!!!!!!!!!!!!!!!!!!!!!!!!!!!!!!!!!!!!!!
                         NOTICE                           
 !!!!!!!!!!!!!!!!!!!!!!!!!!!!!!!!!!!!!!!!!!!!!!!!!!!!!!!!!
 
 to use SCAN or HSE, LIBXC is required
 CHECK IN FILE : OUT.ABACUS/warning.log
 
 !!!!!!!!!!!!!!!!!!!!!!!!!!!!!!!!!!!!!!!!!!!!!!!!!!!!!!!!!
                         NOTICE                           
 !!!!!!!!!!!!!!!!!!!!!!!!!!!!!!!!!!!!!!!!!!!!!!!!!!!!!!!!!

  |CLASS_NAME---------|NAME---------------|TIME(Sec)-----|CALLS----|AVG------|PER%-------
 ----------------------------------------------------------------------------------------
 See output information in : OUT.ABACUS/
