 *********************************************************
 *                                                       *
 *                  WELCOME TO ABACUS v3.0               *
 *                                                       *
 *            'Atomic-orbital Based Ab-initio            *
 *                  Computation at UStc'                 *
 *                                                       *
 *          Website: http://abacus.ustc.edu.cn/          *
 *                                                       *
 *********************************************************
 Tue May  2 12:49:15 2023
 MAKE THE DIR         : OUT.blpstest/
Notice: symbol 'Li_locpsp' is not an element symbol!!!! set the covalent radius to be 0.
 UNIFORM GRID DIM     : 40 * 40 * 40
 UNIFORM GRID DIM(BIG): 40 * 40 * 40
func,idXC_GGA_X_PBE 101
func,idXC_GGA_C_PBE 130
 DONE(0.306192   SEC) : SETUP UNITCELL
 DONE(0.365767   SEC) : SYMMETRY
 DONE(0.366218   SEC) : INIT K-POINTS
 ---------------------------------------------------------
 Self-consistent calculations for electrons
 ---------------------------------------------------------
 SPIN    KPOINTS         PROCESSORS  
 1       1               1           
 ---------------------------------------------------------
 Use plane wave basis
 ---------------------------------------------------------
 ELEMENT NATOM       XC          
 Li      2           
 ---------------------------------------------------------
 Initial plane wave basis and FFT box
 ---------------------------------------------------------
 DONE(0.409062   SEC) : INIT BASIS
 DONE(0.409139   SEC) : INIT PHI
 DONE(0.511021   SEC) : LOCAL POTENTIAL
 DONE(0.51109    SEC) : NON-LOCAL POTENTIAL
 START CHARGE      : atomic
 DONE(0.814398   SEC) : INIT POTENTIAL
 DONE(0.814908   SEC) : INIT OPTIMIZATION
Default type: double
 DONE(0.818915   SEC) : INIT KEDF
======================== Running OFDFT ========================
Iter        Etot(Ha)          Theta      PotNorm     deltaE(Ha)
0     -4.983961477502e-01   2.000e-01   6.749e-02   -4.984e-01  
1     -5.177987471053e-01   7.449e-02   2.711e-02   -1.940e-02  
2     -5.184858444875e-01   7.112e-03   5.609e-03   -6.871e-04  
3     -5.185121538962e-01   2.882e-03   4.694e-04   -2.631e-05  
4     -5.185124128938e-01   3.713e-04   4.480e-05   -2.590e-07  
5     -5.185124145798e-01   2.134e-05   9.010e-06   -1.686e-09  

  |CLASS_NAME---------|NAME---------------|TIME(Sec)-----|CALLS----|AVG------|PER%-------
                       total               26.486         21        1.3       1e+02     %
   Driver              driver_line         26.47          1         26        1e+02     %
   PW_Basis            setuptransform      0.26321        1         0.26      0.99      %
   ppcell_vl           init_vloc           0.10155        1         0.1       0.38      %
   Charge              atomic_rho          0.11279        1         0.11      0.43      %
   PW_Basis            recip2real          5.9403         2387      0.0025    22        %
   PW_Basis            gathers_scatterp    0.73258        2387      0.00031   2.8       %
   Potential           init_pot            0.18448        1         0.18      0.7       %
   Potential           update_from_charge  15.522         184       0.084     59        %
   Potential           cal_v_eff           15.515         184       0.084     59        %
   H_Hartree_pw        v_hartree           1.3187         184       0.0072    5         %
   PW_Basis            real2recip          5.764          2387      0.0024    22        %
   PW_Basis            gatherp_scatters    0.55924        2387      0.00023   2.1       %
   PotXC               cal_v_eff           14.129         184       0.077     53        %
   XC_Functional       v_xc                12.943         92        0.14      49        %
   XC_Functional       v_xc_libxc          14.012         184       0.076     53        %
   ESolver_OF          Run                 25.666         1         26        97        %
   KEDF_LKT            LKT_potential       8.5305         183       0.047     32        %
   KEDF_vW             vw_potential        1.1792         183       0.0064    4.5       %
 ----------------------------------------------------------------------------------------

 START  Time  : Tue May  2 12:49:15 2023
 FINISH Time  : Tue May  2 12:49:42 2023
 TOTAL  Time  : 27
 SEE INFORMATION IN : OUT.blpstest/
