 *********************************************************
 *                                                       *
 *                  WELCOME TO ABACUS v3.0               *
 *                                                       *
 *            'Atomic-orbital Based Ab-initio            *
 *                  Computation at UStc'                 *
 *                                                       *
 *          Website: http://abacus.ustc.edu.cn/          *
 *                                                       *
 *********************************************************
 Wed May  3 14:17:07 2023
 MAKE THE DIR         : OUT.oftest/
Notice: symbol 'Li_locpsp' is not an element symbol!!!! set the covalent radius to be 0.
 UNIFORM GRID DIM     : 45 * 45 * 45
 UNIFORM GRID DIM(BIG): 45 * 45 * 45
func,idXC_GGA_X_PBE 101
func,idXC_GGA_C_PBE 130
 DONE(0.288785   SEC) : SETUP UNITCELL
 DONE(0.348038   SEC) : SYMMETRY
 DONE(0.348333   SEC) : INIT K-POINTS
 ---------------------------------------------------------
 Self-consistent calculations for electrons
 ---------------------------------------------------------
 SPIN    KPOINTS         PROCESSORS  
 1       1               1           
 ---------------------------------------------------------
 Use plane wave basis
 ---------------------------------------------------------
 ELEMENT NATOM       XC          
 Li      2           
 ---------------------------------------------------------
 Initial plane wave basis and FFT box
 ---------------------------------------------------------
 DONE(0.408283   SEC) : INIT BASIS
 DONE(0.408325   SEC) : INIT PHI
 DONE(0.535527   SEC) : LOCAL POTENTIAL
 DONE(0.535569   SEC) : NON-LOCAL POTENTIAL
 START CHARGE      : atomic
 DONE(0.84153    SEC) : INIT POTENTIAL
 DONE(0.842158   SEC) : INIT OPTIMIZATION
Default type: double
nnode = 10
nlayer = 3
feg_net_F = 0.540933
 DONE(0.935641   SEC) : INIT KEDF
======================== Running OFDFT ========================
Iter        Etot(Ha)          Theta      PotNorm     deltaE(Ha)
0     -4.988732524483e-01   2.000e-01   6.540e-02   -4.989e-01  
1     -5.152531747921e-01   5.835e-02   1.417e-02   -1.638e-02  
2     -5.153270601832e-01   2.516e-03   2.226e-03   -7.389e-05  
3     -5.153324380552e-01   1.483e-03   8.575e-04   -5.378e-06  
4     -5.153329441218e-01   4.469e-04   4.040e-04   -5.061e-07  
5     -5.153331476766e-01   4.033e-04   1.679e-04   -2.036e-07  

  |CLASS_NAME---------|NAME---------------|TIME(Sec)-----|CALLS----|AVG------|PER%-------
                       total               388.52         21        19        1e+02     %
   Driver              driver_line         388.51         1         3.9e+02   1e+02     %
   PW_Basis            setuptransform      0.24755        1         0.25      0.064     %
   ppcell_vl           init_vloc           0.12699        1         0.13      0.033     %
   Charge              atomic_rho          0.1362         1         0.14      0.035     %
   PW_Basis            recip2real          10.669         3808      0.0028    2.7       %
   PW_Basis            gathers_scatterp    0.91704        3808      0.00024   0.24      %
   Potential           init_pot            0.16316        1         0.16      0.042     %
   Potential           update_from_charge  15.462         191       0.081     4         %
   Potential           cal_v_eff           15.455         191       0.081     4         %
   H_Hartree_pw        v_hartree           1.2244         191       0.0064    0.32      %
   PW_Basis            real2recip          10.404         3808      0.0027    2.7       %
   PW_Basis            gatherp_scatters    0.58053        3808      0.00015   0.15      %
   PotXC               cal_v_eff           14.189         191       0.074     3.7       %
   XC_Functional       v_xc                191.79         96        2         49        %
   XC_Functional       v_xc_libxc          14.167         191       0.074     3.6       %
   ESolver_OF          Run                 387.58         1         3.9e+02   1e+02     %
   KEDF_vW             vw_potential        1.1931         190       0.0063    0.31      %
 ----------------------------------------------------------------------------------------

 START  Time  : Wed May  3 14:17:07 2023
 FINISH Time  : Wed May  3 14:23:35 2023
 TOTAL  Time  : 3.9e+02
 SEE INFORMATION IN : OUT.oftest/
