                                                                                     
                             WELCOME TO ABACUS                                       
                                                                                     
               'Atomic-orbital Based Ab-initio Computation at UStc'                  
                                                                                     
                     Website: http://abacus.ustc.edu.cn/                             
                                                                                     
    Version: Parallel, in development
    Processor Number is 1
    Start Time is Mon Sep  5 19:54:49 2022
                                                                                     
 ------------------------------------------------------------------------------------

 READING GENERAL INFORMATION
                           global_out_dir = OUT.blpstest/
                           global_in_card = INPUT
                               pseudo_dir = 
                              orbital_dir = 
                              pseudo_type = auto
                                    DRANK = 1
                                    DSIZE = 1
                                   DCOLOR = 1
                                    GRANK = 1
                                    GSIZE = 1
 The esolver type has been set to : ksdft_pw




 >>>>>>>>>>>>>>>>>>>>>>>>>>>>>>>>>>>>>>>>>>>>>>>>>>>>>>>>>>>>>>>>>>>>>>
 |                                                                    |
 | Reading atom information in unitcell:                              |
 | From the input file and the structure file we know the number of   |
 | different elments in this unitcell, then we list the detail        |
 | information for each element, especially the zeta and polar atomic |
 | orbital number for each element. The total atom number is counted. |
 | We calculate the nearest atom distance for each atom and show the  |
 | Cartesian and Direct coordinates for each atom. We list the file   |
 | address for atomic orbitals. The volume and the lattice vectors    |
 | in real and reciprocal space is also shown.                        |
 |                                                                    |
 <<<<<<<<<<<<<<<<<<<<<<<<<<<<<<<<<<<<<<<<<<<<<<<<<<<<<<<<<<<<<<<<<<<<<<




 READING UNITCELL INFORMATION
                                    ntype = 1
                 atom label for species 1 = Mg
                  lattice constant (Bohr) = 6.08341
              lattice constant (Angstrom) = 3.2192

 READING ATOM TYPE 1
                               atom label = Mg
                      L=0, number of zeta = 1
                      L=1, number of zeta = 1
                      L=2, number of zeta = 1
             number of atom for this type = 2
                      start magnetization = FALSE
                      start magnetization = FALSE

                        TOTAL ATOM NUMBER = 2

 DIRECT COORDINATES
         atom                   x                   y                   z                 mag                  vx                  vy                  vz
     taud_Mg1                   0                   0                   0                   0                   0                   0                   0
     taud_Mg2            0.666667            0.333333                 0.5                   0                   0                   0                   0


                          Volume (Bohr^3) = 318.861
                             Volume (A^3) = 47.2502

 Lattice vectors: (Cartesian coordinate: in unit of a_0)
                   +1                  +0                  +0
                 -0.5           +0.866025                  +0
                   +0                  +0            +1.63542
 Reciprocal vectors: (Cartesian coordinate: in unit of 2 pi/a_0)
                   +1            +0.57735                  -0
                   +0             +1.1547                  -0
                   +0                  -0           +0.611463




 >>>>>>>>>>>>>>>>>>>>>>>>>>>>>>>>>>>>>>>>>>>>>>>>>>>>>>>>>>>>>>>>>>>>>>
 |                                                                    |
 | Reading pseudopotentials files:                                    |
 | The pseudopotential file is in UPF format. The 'NC' indicates that |
 | the type of pseudopotential is 'norm conserving'. Functional of    |
 | exchange and correlation is decided by 4 given parameters in UPF   |
 | file.  We also read in the 'core correction' if there exists.      |
 | Also we can read the valence electrons number and the maximal      |
 | angular momentum used in this pseudopotential. We also read in the |
 | trail wave function, trail atomic density and local-pseudopotential|
 | on logrithmic grid. The non-local pseudopotential projector is also|
 | read in if there is any.                                           |
 |                                                                    |
 <<<<<<<<<<<<<<<<<<<<<<<<<<<<<<<<<<<<<<<<<<<<<<<<<<<<<<<<<<<<<<<<<<<<<<




                PAO radial cut off (Bohr) = 15

 Read in pseudopotential file is Mg.pbe-mt_fhi.UPF
                     pseudopotential type = NC
          exchange-correlation functional = PBE
                 nonlocal core correction = 1
                        valence electrons = 2
                                     lmax = 3
                           number of zeta = 4
                     number of projectors = 3
                           L of projector = 0
                           L of projector = 1
                           L of projector = 3
     initial pseudo atomic orbital number = 32
                                   NLOCAL = 18




 >>>>>>>>>>>>>>>>>>>>>>>>>>>>>>>>>>>>>>>>>>>>>>>>>>>>>>>>>>>>>>>>>>>>>>
 |                                                                    |
 | Setup plane waves of charge/potential:                             |
 | Use the energy cutoff and the lattice vectors to generate the      |
 | dimensions of FFT grid. The number of FFT grid on each processor   |
 | is 'nrxx'. The number of plane wave basis in reciprocal space is   |
 | different for charege/potential and wave functions. We also set    |
 | the 'sticks' for the parallel of FFT. The number of plane waves    |
 | is 'npw' in each processor.                                        |
 <<<<<<<<<<<<<<<<<<<<<<<<<<<<<<<<<<<<<<<<<<<<<<<<<<<<<<<<<<<<<<<<<<<<<<





 SETUP THE PLANE WAVE BASIS
 energy cutoff for charge/potential (unit:Ry) = 240
          [fft grid for charge/potential] = 30, 30, 50
                      [fft grid division] = 1, 1, 1
      [big fft grid for charge/potential] = 30, 30, 50
                                     nbxx = 45000
                                     nrxx = 45000

 SETUP PLANE WAVES FOR CHARGE/POTENTIAL
                    number of plane waves = 19927
                         number of sticks = 595

 PARALLEL PW FOR CHARGE/POTENTIAL
     PROC   COLUMNS(POT)             PW
        1            595          19927
 --------------- sum -------------------
        1            595          19927
                            number of |g| = 1008
                                  max |g| = 224.692
                                  min |g| = 0

 SETUP THE ELECTRONS NUMBER
            electron number of element Mg = 2
      total electron number of element Mg = 4
                           occupied bands = 2
                                   NBANDS = 15
 DONE : SETUP UNITCELL Time : 0.0524208 (SEC)





 >>>>>>>>>>>>>>>>>>>>>>>>>>>>>>>>>>>>>>>>>>>>>>>>>>>>>>>>>>>>>>>>>>>>>>
 |                                                                    |
 | Doing symmetry analysis:                                           |
 | We calculate the norm of 3 vectors and the angles between them,    |
 | the type of Bravais lattice is given. We can judge if the unticell |
 | is a primitive cell. Finally we give the point group operation for |
 | this unitcell. We we use the point group operations to do symmetry |
 | analysis on given k-point mesh and the charge density.             |
 |                                                                    |
 <<<<<<<<<<<<<<<<<<<<<<<<<<<<<<<<<<<<<<<<<<<<<<<<<<<<<<<<<<<<<<<<<<<<<<




 LATTICE VECTORS: (CARTESIAN COORDINATE: IN UNIT OF A0)
                   +1                  +0                  +0
                 -0.5           +0.866025                  +0
                   +0                  +0            +1.63542
                       right hand lattice = 1
                                   NORM_A = 1
                                   NORM_B = 1
                                   NORM_C = 1.63542
                           ALPHA (DEGREE) = 120
                           BETA  (DEGREE) = 90
                           GAMMA (DEGREE) = 90
                             BRAVAIS TYPE = 4
                     BRAVAIS LATTICE NAME = 04. Hexagonal cell
                                    IBRAV = 4
                                  BRAVAIS = HEXAGONAL CELL
                       LATTICE CONSTANT A = 5.57418
                                C/A RATIO = 0.663979
                                    ibrav = 4
                        ROTATION MATRICES = 24
              PURE POINT GROUP OPERATIONS = 12
                   SPACE GROUP OPERATIONS = 12
                                       C2 = 3
                                       C3 = 2
                                       C4 = 0
                                       C6 = 0
                                       S1 = 4
                                       S3 = 2
                                       S4 = 0
                                       S6 = 0
                              POINT GROUP = D_3h
Warning : If the optimal symmetric configuration is not the input configuration, 
you have to manually change configurations, ABACUS would only calculate the input structure!
 DONE : SYMMETRY Time : 0.0969483 (SEC)





 >>>>>>>>>>>>>>>>>>>>>>>>>>>>>>>>>>>>>>>>>>>>>>>>>>>>>>>>>>>>>>>>>>>>>>
 |                                                                    |
 | Setup K-points                                                     |
 | We setup the k-points according to input parameters.               |
 | The reduced k-points are set according to symmetry operations.     |
 | We treat the spin as another set of k-points.                      |
 |                                                                    |
 <<<<<<<<<<<<<<<<<<<<<<<<<<<<<<<<<<<<<<<<<<<<<<<<<<<<<<<<<<<<<<<<<<<<<<





 SETUP K-POINTS
                                    nspin = 1
                   Input type of k points = Monkhorst-Pack(Gamma)
                                   nkstot = 1728
                               nkstot_ibz = 133
      IBZ             DirectX             DirectY             DirectZ              Weight    ibz2bz
        1                   0                   0                   0         0.000578704         0
        2            0.916667           0.0833333                   0          0.00347222         1
        3            0.833333            0.166667                   0          0.00347222         2
        4                0.75                0.25                   0          0.00347222         3
        5            0.666667            0.333333                   0          0.00347222         4
        6            0.583333            0.416667                   0          0.00347222         5
        7                 0.5                 0.5                   0          0.00173611         6
        8            0.916667            0.916667                   0          0.00347222        13
        9            0.916667            0.833333                   0          0.00694444        14
       10            0.916667                0.75                   0          0.00694444        15
       11            0.916667            0.666667                   0          0.00694444        16
       12            0.916667            0.583333                   0          0.00694444        17
       13            0.833333            0.833333                   0          0.00347222        26
       14            0.833333                0.75                   0          0.00694444        27
       15            0.833333            0.666667                   0          0.00694444        28
       16            0.833333            0.583333                   0          0.00347222        29
       17                0.75                0.75                   0          0.00347222        39
       18                0.75            0.666667                   0          0.00694444        40
       19            0.666667            0.666667                   0          0.00115741        52
       20                   0                   0            0.916667          0.00115741       144
       21            0.916667           0.0833333            0.916667          0.00694444       145
       22            0.833333            0.166667            0.916667          0.00694444       146
       23                0.75                0.25            0.916667          0.00694444       147
       24            0.666667            0.333333            0.916667          0.00694444       148
       25            0.583333            0.416667            0.916667          0.00694444       149
       26                 0.5                 0.5            0.916667          0.00347222       150
       27            0.916667            0.916667            0.916667          0.00694444       157
       28            0.916667            0.833333            0.916667           0.0138889       158
       29            0.916667                0.75            0.916667           0.0138889       159
       30            0.916667            0.666667            0.916667           0.0138889       160
       31            0.916667            0.583333            0.916667           0.0138889       161
       32            0.833333            0.833333            0.916667          0.00694444       170
       33            0.833333                0.75            0.916667           0.0138889       171
       34            0.833333            0.666667            0.916667           0.0138889       172
       35            0.833333            0.583333            0.916667          0.00694444       173
       36                0.75                0.75            0.916667          0.00694444       183
       37                0.75            0.666667            0.916667           0.0138889       184
       38            0.666667            0.666667            0.916667          0.00231481       196
       39                   0                   0            0.833333          0.00115741       288
       40            0.916667           0.0833333            0.833333          0.00694444       289
       41            0.833333            0.166667            0.833333          0.00694444       290
       42                0.75                0.25            0.833333          0.00694444       291
       43            0.666667            0.333333            0.833333          0.00694444       292
       44            0.583333            0.416667            0.833333          0.00694444       293
       45                 0.5                 0.5            0.833333          0.00347222       294
       46            0.916667            0.916667            0.833333          0.00694444       301
       47            0.916667            0.833333            0.833333           0.0138889       302
       48            0.916667                0.75            0.833333           0.0138889       303
       49            0.916667            0.666667            0.833333           0.0138889       304
       50            0.916667            0.583333            0.833333           0.0138889       305
       51            0.833333            0.833333            0.833333          0.00694444       314
       52            0.833333                0.75            0.833333           0.0138889       315
       53            0.833333            0.666667            0.833333           0.0138889       316
       54            0.833333            0.583333            0.833333          0.00694444       317
       55                0.75                0.75            0.833333          0.00694444       327
       56                0.75            0.666667            0.833333           0.0138889       328
       57            0.666667            0.666667            0.833333          0.00231481       340
       58                   0                   0                0.75          0.00115741       432
       59            0.916667           0.0833333                0.75          0.00694444       433
       60            0.833333            0.166667                0.75          0.00694444       434
       61                0.75                0.25                0.75          0.00694444       435
       62            0.666667            0.333333                0.75          0.00694444       436
       63            0.583333            0.416667                0.75          0.00694444       437
       64                 0.5                 0.5                0.75          0.00347222       438
       65            0.916667            0.916667                0.75          0.00694444       445
       66            0.916667            0.833333                0.75           0.0138889       446
       67            0.916667                0.75                0.75           0.0138889       447
       68            0.916667            0.666667                0.75           0.0138889       448
       69            0.916667            0.583333                0.75           0.0138889       449
       70            0.833333            0.833333                0.75          0.00694444       458
       71            0.833333                0.75                0.75           0.0138889       459
       72            0.833333            0.666667                0.75           0.0138889       460
       73            0.833333            0.583333                0.75          0.00694444       461
       74                0.75                0.75                0.75          0.00694444       471
       75                0.75            0.666667                0.75           0.0138889       472
       76            0.666667            0.666667                0.75          0.00231481       484
       77                   0                   0            0.666667          0.00115741       576
       78            0.916667           0.0833333            0.666667          0.00694444       577
       79            0.833333            0.166667            0.666667          0.00694444       578
       80                0.75                0.25            0.666667          0.00694444       579
       81            0.666667            0.333333            0.666667          0.00694444       580
       82            0.583333            0.416667            0.666667          0.00694444       581
       83                 0.5                 0.5            0.666667          0.00347222       582
       84            0.916667            0.916667            0.666667          0.00694444       589
       85            0.916667            0.833333            0.666667           0.0138889       590
       86            0.916667                0.75            0.666667           0.0138889       591
       87            0.916667            0.666667            0.666667           0.0138889       592
       88            0.916667            0.583333            0.666667           0.0138889       593
       89            0.833333            0.833333            0.666667          0.00694444       602
       90            0.833333                0.75            0.666667           0.0138889       603
       91            0.833333            0.666667            0.666667           0.0138889       604
       92            0.833333            0.583333            0.666667          0.00694444       605
       93                0.75                0.75            0.666667          0.00694444       615
       94                0.75            0.666667            0.666667           0.0138889       616
       95            0.666667            0.666667            0.666667          0.00231481       628
       96                   0                   0            0.583333          0.00115741       720
       97            0.916667           0.0833333            0.583333          0.00694444       721
       98            0.833333            0.166667            0.583333          0.00694444       722
       99                0.75                0.25            0.583333          0.00694444       723
      100            0.666667            0.333333            0.583333          0.00694444       724
      101            0.583333            0.416667            0.583333          0.00694444       725
      102                 0.5                 0.5            0.583333          0.00347222       726
      103            0.916667            0.916667            0.583333          0.00694444       733
      104            0.916667            0.833333            0.583333           0.0138889       734
      105            0.916667                0.75            0.583333           0.0138889       735
      106            0.916667            0.666667            0.583333           0.0138889       736
      107            0.916667            0.583333            0.583333           0.0138889       737
      108            0.833333            0.833333            0.583333          0.00694444       746
      109            0.833333                0.75            0.583333           0.0138889       747
      110            0.833333            0.666667            0.583333           0.0138889       748
      111            0.833333            0.583333            0.583333          0.00694444       749
      112                0.75                0.75            0.583333          0.00694444       759
      113                0.75            0.666667            0.583333           0.0138889       760
      114            0.666667            0.666667            0.583333          0.00231481       772
      115                   0                   0                 0.5         0.000578704       864
      116            0.916667           0.0833333                 0.5          0.00347222       865
      117            0.833333            0.166667                 0.5          0.00347222       866
      118                0.75                0.25                 0.5          0.00347222       867
      119            0.666667            0.333333                 0.5          0.00347222       868
      120            0.583333            0.416667                 0.5          0.00347222       869
      121                 0.5                 0.5                 0.5          0.00173611       870
      122            0.916667            0.916667                 0.5          0.00347222       877
      123            0.916667            0.833333                 0.5          0.00694444       878
      124            0.916667                0.75                 0.5          0.00694444       879
      125            0.916667            0.666667                 0.5          0.00694444       880
      126            0.916667            0.583333                 0.5          0.00694444       881
      127            0.833333            0.833333                 0.5          0.00347222       890
      128            0.833333                0.75                 0.5          0.00694444       891
      129            0.833333            0.666667                 0.5          0.00694444       892
      130            0.833333            0.583333                 0.5          0.00347222       893
      131                0.75                0.75                 0.5          0.00347222       903
      132                0.75            0.666667                 0.5          0.00694444       904
      133            0.666667            0.666667                 0.5          0.00115741       916
                               nkstot now = 133

  KPOINTS            DIRECT_X            DIRECT_Y            DIRECT_Z              WEIGHT
        1                   0                   0                   0         0.000578704
        2            0.916667           0.0833333                   0          0.00347222
        3            0.833333            0.166667                   0          0.00347222
        4                0.75                0.25                   0          0.00347222
        5            0.666667            0.333333                   0          0.00347222
        6            0.583333            0.416667                   0          0.00347222
        7                 0.5                 0.5                   0          0.00173611
        8            0.916667            0.916667                   0          0.00347222
        9            0.916667            0.833333                   0          0.00694444
       10            0.916667                0.75                   0          0.00694444
       11            0.916667            0.666667                   0          0.00694444
       12            0.916667            0.583333                   0          0.00694444
       13            0.833333            0.833333                   0          0.00347222
       14            0.833333                0.75                   0          0.00694444
       15            0.833333            0.666667                   0          0.00694444
       16            0.833333            0.583333                   0          0.00347222
       17                0.75                0.75                   0          0.00347222
       18                0.75            0.666667                   0          0.00694444
       19            0.666667            0.666667                   0          0.00115741
       20                   0                   0            0.916667          0.00115741
       21            0.916667           0.0833333            0.916667          0.00694444
       22            0.833333            0.166667            0.916667          0.00694444
       23                0.75                0.25            0.916667          0.00694444
       24            0.666667            0.333333            0.916667          0.00694444
       25            0.583333            0.416667            0.916667          0.00694444
       26                 0.5                 0.5            0.916667          0.00347222
       27            0.916667            0.916667            0.916667          0.00694444
       28            0.916667            0.833333            0.916667           0.0138889
       29            0.916667                0.75            0.916667           0.0138889
       30            0.916667            0.666667            0.916667           0.0138889
       31            0.916667            0.583333            0.916667           0.0138889
       32            0.833333            0.833333            0.916667          0.00694444
       33            0.833333                0.75            0.916667           0.0138889
       34            0.833333            0.666667            0.916667           0.0138889
       35            0.833333            0.583333            0.916667          0.00694444
       36                0.75                0.75            0.916667          0.00694444
       37                0.75            0.666667            0.916667           0.0138889
       38            0.666667            0.666667            0.916667          0.00231481
       39                   0                   0            0.833333          0.00115741
       40            0.916667           0.0833333            0.833333          0.00694444
       41            0.833333            0.166667            0.833333          0.00694444
       42                0.75                0.25            0.833333          0.00694444
       43            0.666667            0.333333            0.833333          0.00694444
       44            0.583333            0.416667            0.833333          0.00694444
       45                 0.5                 0.5            0.833333          0.00347222
       46            0.916667            0.916667            0.833333          0.00694444
       47            0.916667            0.833333            0.833333           0.0138889
       48            0.916667                0.75            0.833333           0.0138889
       49            0.916667            0.666667            0.833333           0.0138889
       50            0.916667            0.583333            0.833333           0.0138889
       51            0.833333            0.833333            0.833333          0.00694444
       52            0.833333                0.75            0.833333           0.0138889
       53            0.833333            0.666667            0.833333           0.0138889
       54            0.833333            0.583333            0.833333          0.00694444
       55                0.75                0.75            0.833333          0.00694444
       56                0.75            0.666667            0.833333           0.0138889
       57            0.666667            0.666667            0.833333          0.00231481
       58                   0                   0                0.75          0.00115741
       59            0.916667           0.0833333                0.75          0.00694444
       60            0.833333            0.166667                0.75          0.00694444
       61                0.75                0.25                0.75          0.00694444
       62            0.666667            0.333333                0.75          0.00694444
       63            0.583333            0.416667                0.75          0.00694444
       64                 0.5                 0.5                0.75          0.00347222
       65            0.916667            0.916667                0.75          0.00694444
       66            0.916667            0.833333                0.75           0.0138889
       67            0.916667                0.75                0.75           0.0138889
       68            0.916667            0.666667                0.75           0.0138889
       69            0.916667            0.583333                0.75           0.0138889
       70            0.833333            0.833333                0.75          0.00694444
       71            0.833333                0.75                0.75           0.0138889
       72            0.833333            0.666667                0.75           0.0138889
       73            0.833333            0.583333                0.75          0.00694444
       74                0.75                0.75                0.75          0.00694444
       75                0.75            0.666667                0.75           0.0138889
       76            0.666667            0.666667                0.75          0.00231481
       77                   0                   0            0.666667          0.00115741
       78            0.916667           0.0833333            0.666667          0.00694444
       79            0.833333            0.166667            0.666667          0.00694444
       80                0.75                0.25            0.666667          0.00694444
       81            0.666667            0.333333            0.666667          0.00694444
       82            0.583333            0.416667            0.666667          0.00694444
       83                 0.5                 0.5            0.666667          0.00347222
       84            0.916667            0.916667            0.666667          0.00694444
       85            0.916667            0.833333            0.666667           0.0138889
       86            0.916667                0.75            0.666667           0.0138889
       87            0.916667            0.666667            0.666667           0.0138889
       88            0.916667            0.583333            0.666667           0.0138889
       89            0.833333            0.833333            0.666667          0.00694444
       90            0.833333                0.75            0.666667           0.0138889
       91            0.833333            0.666667            0.666667           0.0138889
       92            0.833333            0.583333            0.666667          0.00694444
       93                0.75                0.75            0.666667          0.00694444
       94                0.75            0.666667            0.666667           0.0138889
       95            0.666667            0.666667            0.666667          0.00231481
       96                   0                   0            0.583333          0.00115741
       97            0.916667           0.0833333            0.583333          0.00694444
       98            0.833333            0.166667            0.583333          0.00694444
       99                0.75                0.25            0.583333          0.00694444
      100            0.666667            0.333333            0.583333          0.00694444
      101            0.583333            0.416667            0.583333          0.00694444
      102                 0.5                 0.5            0.583333          0.00347222
      103            0.916667            0.916667            0.583333          0.00694444
      104            0.916667            0.833333            0.583333           0.0138889
      105            0.916667                0.75            0.583333           0.0138889
      106            0.916667            0.666667            0.583333           0.0138889
      107            0.916667            0.583333            0.583333           0.0138889
      108            0.833333            0.833333            0.583333          0.00694444
      109            0.833333                0.75            0.583333           0.0138889
      110            0.833333            0.666667            0.583333           0.0138889
      111            0.833333            0.583333            0.583333          0.00694444
      112                0.75                0.75            0.583333          0.00694444
      113                0.75            0.666667            0.583333           0.0138889
      114            0.666667            0.666667            0.583333          0.00231481
      115                   0                   0                 0.5         0.000578704
      116            0.916667           0.0833333                 0.5          0.00347222
      117            0.833333            0.166667                 0.5          0.00347222
      118                0.75                0.25                 0.5          0.00347222
      119            0.666667            0.333333                 0.5          0.00347222
      120            0.583333            0.416667                 0.5          0.00347222
      121                 0.5                 0.5                 0.5          0.00173611
      122            0.916667            0.916667                 0.5          0.00347222
      123            0.916667            0.833333                 0.5          0.00694444
      124            0.916667                0.75                 0.5          0.00694444
      125            0.916667            0.666667                 0.5          0.00694444
      126            0.916667            0.583333                 0.5          0.00694444
      127            0.833333            0.833333                 0.5          0.00347222
      128            0.833333                0.75                 0.5          0.00694444
      129            0.833333            0.666667                 0.5          0.00694444
      130            0.833333            0.583333                 0.5          0.00347222
      131                0.75                0.75                 0.5          0.00347222
      132                0.75            0.666667                 0.5          0.00694444
      133            0.666667            0.666667                 0.5          0.00115741

           k-point number in this process = 133
       minimum distributed K point number = 133

  KPOINTS         CARTESIAN_X         CARTESIAN_Y         CARTESIAN_Z              WEIGHT
        1                   0                   0                   0          0.00115741
        2            0.916667            0.625463                   0          0.00694444
        3            0.833333            0.673575                   0          0.00694444
        4                0.75            0.721688                   0          0.00694444
        5            0.666667              0.7698                   0          0.00694444
        6            0.583333            0.817913                   0          0.00694444
        7                 0.5            0.866025                   0          0.00347222
        8            0.916667             1.58771                   0          0.00694444
        9            0.916667             1.49149                   0           0.0138889
       10            0.916667             1.39526                   0           0.0138889
       11            0.916667             1.29904                   0           0.0138889
       12            0.916667             1.20281                   0           0.0138889
       13            0.833333             1.44338                   0          0.00694444
       14            0.833333             1.34715                   0           0.0138889
       15            0.833333             1.25093                   0           0.0138889
       16            0.833333              1.1547                   0          0.00694444
       17                0.75             1.29904                   0          0.00694444
       18                0.75             1.20281                   0           0.0138889
       19            0.666667              1.1547                   0          0.00231481
       20                   0                   0            0.560508          0.00231481
       21            0.916667            0.625463            0.560508           0.0138889
       22            0.833333            0.673575            0.560508           0.0138889
       23                0.75            0.721688            0.560508           0.0138889
       24            0.666667              0.7698            0.560508           0.0138889
       25            0.583333            0.817913            0.560508           0.0138889
       26                 0.5            0.866025            0.560508          0.00694444
       27            0.916667             1.58771            0.560508           0.0138889
       28            0.916667             1.49149            0.560508           0.0277778
       29            0.916667             1.39526            0.560508           0.0277778
       30            0.916667             1.29904            0.560508           0.0277778
       31            0.916667             1.20281            0.560508           0.0277778
       32            0.833333             1.44338            0.560508           0.0138889
       33            0.833333             1.34715            0.560508           0.0277778
       34            0.833333             1.25093            0.560508           0.0277778
       35            0.833333              1.1547            0.560508           0.0138889
       36                0.75             1.29904            0.560508           0.0138889
       37                0.75             1.20281            0.560508           0.0277778
       38            0.666667              1.1547            0.560508          0.00462963
       39                   0                   0            0.509553          0.00231481
       40            0.916667            0.625463            0.509553           0.0138889
       41            0.833333            0.673575            0.509553           0.0138889
       42                0.75            0.721688            0.509553           0.0138889
       43            0.666667              0.7698            0.509553           0.0138889
       44            0.583333            0.817913            0.509553           0.0138889
       45                 0.5            0.866025            0.509553          0.00694444
       46            0.916667             1.58771            0.509553           0.0138889
       47            0.916667             1.49149            0.509553           0.0277778
       48            0.916667             1.39526            0.509553           0.0277778
       49            0.916667             1.29904            0.509553           0.0277778
       50            0.916667             1.20281            0.509553           0.0277778
       51            0.833333             1.44338            0.509553           0.0138889
       52            0.833333             1.34715            0.509553           0.0277778
       53            0.833333             1.25093            0.509553           0.0277778
       54            0.833333              1.1547            0.509553           0.0138889
       55                0.75             1.29904            0.509553           0.0138889
       56                0.75             1.20281            0.509553           0.0277778
       57            0.666667              1.1547            0.509553          0.00462963
       58                   0                   0            0.458597          0.00231481
       59            0.916667            0.625463            0.458597           0.0138889
       60            0.833333            0.673575            0.458597           0.0138889
       61                0.75            0.721688            0.458597           0.0138889
       62            0.666667              0.7698            0.458597           0.0138889
       63            0.583333            0.817913            0.458597           0.0138889
       64                 0.5            0.866025            0.458597          0.00694444
       65            0.916667             1.58771            0.458597           0.0138889
       66            0.916667             1.49149            0.458597           0.0277778
       67            0.916667             1.39526            0.458597           0.0277778
       68            0.916667             1.29904            0.458597           0.0277778
       69            0.916667             1.20281            0.458597           0.0277778
       70            0.833333             1.44338            0.458597           0.0138889
       71            0.833333             1.34715            0.458597           0.0277778
       72            0.833333             1.25093            0.458597           0.0277778
       73            0.833333              1.1547            0.458597           0.0138889
       74                0.75             1.29904            0.458597           0.0138889
       75                0.75             1.20281            0.458597           0.0277778
       76            0.666667              1.1547            0.458597          0.00462963
       77                   0                   0            0.407642          0.00231481
       78            0.916667            0.625463            0.407642           0.0138889
       79            0.833333            0.673575            0.407642           0.0138889
       80                0.75            0.721688            0.407642           0.0138889
       81            0.666667              0.7698            0.407642           0.0138889
       82            0.583333            0.817913            0.407642           0.0138889
       83                 0.5            0.866025            0.407642          0.00694444
       84            0.916667             1.58771            0.407642           0.0138889
       85            0.916667             1.49149            0.407642           0.0277778
       86            0.916667             1.39526            0.407642           0.0277778
       87            0.916667             1.29904            0.407642           0.0277778
       88            0.916667             1.20281            0.407642           0.0277778
       89            0.833333             1.44338            0.407642           0.0138889
       90            0.833333             1.34715            0.407642           0.0277778
       91            0.833333             1.25093            0.407642           0.0277778
       92            0.833333              1.1547            0.407642           0.0138889
       93                0.75             1.29904            0.407642           0.0138889
       94                0.75             1.20281            0.407642           0.0277778
       95            0.666667              1.1547            0.407642          0.00462963
       96                   0                   0            0.356687          0.00231481
       97            0.916667            0.625463            0.356687           0.0138889
       98            0.833333            0.673575            0.356687           0.0138889
       99                0.75            0.721688            0.356687           0.0138889
      100            0.666667              0.7698            0.356687           0.0138889
      101            0.583333            0.817913            0.356687           0.0138889
      102                 0.5            0.866025            0.356687          0.00694444
      103            0.916667             1.58771            0.356687           0.0138889
      104            0.916667             1.49149            0.356687           0.0277778
      105            0.916667             1.39526            0.356687           0.0277778
      106            0.916667             1.29904            0.356687           0.0277778
      107            0.916667             1.20281            0.356687           0.0277778
      108            0.833333             1.44338            0.356687           0.0138889
      109            0.833333             1.34715            0.356687           0.0277778
      110            0.833333             1.25093            0.356687           0.0277778
      111            0.833333              1.1547            0.356687           0.0138889
      112                0.75             1.29904            0.356687           0.0138889
      113                0.75             1.20281            0.356687           0.0277778
      114            0.666667              1.1547            0.356687          0.00462963
      115                   0                   0            0.305732          0.00115741
      116            0.916667            0.625463            0.305732          0.00694444
      117            0.833333            0.673575            0.305732          0.00694444
      118                0.75            0.721688            0.305732          0.00694444
      119            0.666667              0.7698            0.305732          0.00694444
      120            0.583333            0.817913            0.305732          0.00694444
      121                 0.5            0.866025            0.305732          0.00347222
      122            0.916667             1.58771            0.305732          0.00694444
      123            0.916667             1.49149            0.305732           0.0138889
      124            0.916667             1.39526            0.305732           0.0138889
      125            0.916667             1.29904            0.305732           0.0138889
      126            0.916667             1.20281            0.305732           0.0138889
      127            0.833333             1.44338            0.305732          0.00694444
      128            0.833333             1.34715            0.305732           0.0138889
      129            0.833333             1.25093            0.305732           0.0138889
      130            0.833333              1.1547            0.305732          0.00694444
      131                0.75             1.29904            0.305732          0.00694444
      132                0.75             1.20281            0.305732           0.0138889
      133            0.666667              1.1547            0.305732          0.00231481

  KPOINTS            DIRECT_X            DIRECT_Y            DIRECT_Z              WEIGHT
        1                   0                   0                   0          0.00115741
        2            0.916667           0.0833333                   0          0.00694444
        3            0.833333            0.166667                   0          0.00694444
        4                0.75                0.25                   0          0.00694444
        5            0.666667            0.333333                   0          0.00694444
        6            0.583333            0.416667                   0          0.00694444
        7                 0.5                 0.5                   0          0.00347222
        8            0.916667            0.916667                   0          0.00694444
        9            0.916667            0.833333                   0           0.0138889
       10            0.916667                0.75                   0           0.0138889
       11            0.916667            0.666667                   0           0.0138889
       12            0.916667            0.583333                   0           0.0138889
       13            0.833333            0.833333                   0          0.00694444
       14            0.833333                0.75                   0           0.0138889
       15            0.833333            0.666667                   0           0.0138889
       16            0.833333            0.583333                   0          0.00694444
       17                0.75                0.75                   0          0.00694444
       18                0.75            0.666667                   0           0.0138889
       19            0.666667            0.666667                   0          0.00231481
       20                   0                   0            0.916667          0.00231481
       21            0.916667           0.0833333            0.916667           0.0138889
       22            0.833333            0.166667            0.916667           0.0138889
       23                0.75                0.25            0.916667           0.0138889
       24            0.666667            0.333333            0.916667           0.0138889
       25            0.583333            0.416667            0.916667           0.0138889
       26                 0.5                 0.5            0.916667          0.00694444
       27            0.916667            0.916667            0.916667           0.0138889
       28            0.916667            0.833333            0.916667           0.0277778
       29            0.916667                0.75            0.916667           0.0277778
       30            0.916667            0.666667            0.916667           0.0277778
       31            0.916667            0.583333            0.916667           0.0277778
       32            0.833333            0.833333            0.916667           0.0138889
       33            0.833333                0.75            0.916667           0.0277778
       34            0.833333            0.666667            0.916667           0.0277778
       35            0.833333            0.583333            0.916667           0.0138889
       36                0.75                0.75            0.916667           0.0138889
       37                0.75            0.666667            0.916667           0.0277778
       38            0.666667            0.666667            0.916667          0.00462963
       39                   0                   0            0.833333          0.00231481
       40            0.916667           0.0833333            0.833333           0.0138889
       41            0.833333            0.166667            0.833333           0.0138889
       42                0.75                0.25            0.833333           0.0138889
       43            0.666667            0.333333            0.833333           0.0138889
       44            0.583333            0.416667            0.833333           0.0138889
       45                 0.5                 0.5            0.833333          0.00694444
       46            0.916667            0.916667            0.833333           0.0138889
       47            0.916667            0.833333            0.833333           0.0277778
       48            0.916667                0.75            0.833333           0.0277778
       49            0.916667            0.666667            0.833333           0.0277778
       50            0.916667            0.583333            0.833333           0.0277778
       51            0.833333            0.833333            0.833333           0.0138889
       52            0.833333                0.75            0.833333           0.0277778
       53            0.833333            0.666667            0.833333           0.0277778
       54            0.833333            0.583333            0.833333           0.0138889
       55                0.75                0.75            0.833333           0.0138889
       56                0.75            0.666667            0.833333           0.0277778
       57            0.666667            0.666667            0.833333          0.00462963
       58                   0                   0                0.75          0.00231481
       59            0.916667           0.0833333                0.75           0.0138889
       60            0.833333            0.166667                0.75           0.0138889
       61                0.75                0.25                0.75           0.0138889
       62            0.666667            0.333333                0.75           0.0138889
       63            0.583333            0.416667                0.75           0.0138889
       64                 0.5                 0.5                0.75          0.00694444
       65            0.916667            0.916667                0.75           0.0138889
       66            0.916667            0.833333                0.75           0.0277778
       67            0.916667                0.75                0.75           0.0277778
       68            0.916667            0.666667                0.75           0.0277778
       69            0.916667            0.583333                0.75           0.0277778
       70            0.833333            0.833333                0.75           0.0138889
       71            0.833333                0.75                0.75           0.0277778
       72            0.833333            0.666667                0.75           0.0277778
       73            0.833333            0.583333                0.75           0.0138889
       74                0.75                0.75                0.75           0.0138889
       75                0.75            0.666667                0.75           0.0277778
       76            0.666667            0.666667                0.75          0.00462963
       77                   0                   0            0.666667          0.00231481
       78            0.916667           0.0833333            0.666667           0.0138889
       79            0.833333            0.166667            0.666667           0.0138889
       80                0.75                0.25            0.666667           0.0138889
       81            0.666667            0.333333            0.666667           0.0138889
       82            0.583333            0.416667            0.666667           0.0138889
       83                 0.5                 0.5            0.666667          0.00694444
       84            0.916667            0.916667            0.666667           0.0138889
       85            0.916667            0.833333            0.666667           0.0277778
       86            0.916667                0.75            0.666667           0.0277778
       87            0.916667            0.666667            0.666667           0.0277778
       88            0.916667            0.583333            0.666667           0.0277778
       89            0.833333            0.833333            0.666667           0.0138889
       90            0.833333                0.75            0.666667           0.0277778
       91            0.833333            0.666667            0.666667           0.0277778
       92            0.833333            0.583333            0.666667           0.0138889
       93                0.75                0.75            0.666667           0.0138889
       94                0.75            0.666667            0.666667           0.0277778
       95            0.666667            0.666667            0.666667          0.00462963
       96                   0                   0            0.583333          0.00231481
       97            0.916667           0.0833333            0.583333           0.0138889
       98            0.833333            0.166667            0.583333           0.0138889
       99                0.75                0.25            0.583333           0.0138889
      100            0.666667            0.333333            0.583333           0.0138889
      101            0.583333            0.416667            0.583333           0.0138889
      102                 0.5                 0.5            0.583333          0.00694444
      103            0.916667            0.916667            0.583333           0.0138889
      104            0.916667            0.833333            0.583333           0.0277778
      105            0.916667                0.75            0.583333           0.0277778
      106            0.916667            0.666667            0.583333           0.0277778
      107            0.916667            0.583333            0.583333           0.0277778
      108            0.833333            0.833333            0.583333           0.0138889
      109            0.833333                0.75            0.583333           0.0277778
      110            0.833333            0.666667            0.583333           0.0277778
      111            0.833333            0.583333            0.583333           0.0138889
      112                0.75                0.75            0.583333           0.0138889
      113                0.75            0.666667            0.583333           0.0277778
      114            0.666667            0.666667            0.583333          0.00462963
      115                   0                   0                 0.5          0.00115741
      116            0.916667           0.0833333                 0.5          0.00694444
      117            0.833333            0.166667                 0.5          0.00694444
      118                0.75                0.25                 0.5          0.00694444
      119            0.666667            0.333333                 0.5          0.00694444
      120            0.583333            0.416667                 0.5          0.00694444
      121                 0.5                 0.5                 0.5          0.00347222
      122            0.916667            0.916667                 0.5          0.00694444
      123            0.916667            0.833333                 0.5           0.0138889
      124            0.916667                0.75                 0.5           0.0138889
      125            0.916667            0.666667                 0.5           0.0138889
      126            0.916667            0.583333                 0.5           0.0138889
      127            0.833333            0.833333                 0.5          0.00694444
      128            0.833333                0.75                 0.5           0.0138889
      129            0.833333            0.666667                 0.5           0.0138889
      130            0.833333            0.583333                 0.5          0.00694444
      131                0.75                0.75                 0.5          0.00694444
      132                0.75            0.666667                 0.5           0.0138889
      133            0.666667            0.666667                 0.5          0.00231481
 DONE : INIT K-POINTS Time : 0.106396 (SEC)





 >>>>>>>>>>>>>>>>>>>>>>>>>>>>>>>>>>>>>>>>>>>>>>>>>>>>>>>>>>>>>>>>>>>>>>
 |                                                                    |
 | Setup plane waves of wave functions:                               |
 | Use the energy cutoff and the lattice vectors to generate the      |
 | dimensions of FFT grid. The number of FFT grid on each processor   |
 | is 'nrxx'. The number of plane wave basis in reciprocal space is   |
 | different for charege/potential and wave functions. We also set    |
 | the 'sticks' for the parallel of FFT. The number of plane wave of  |
 | each k-point is 'npwk[ik]' in each processor                       |
 <<<<<<<<<<<<<<<<<<<<<<<<<<<<<<<<<<<<<<<<<<<<<<<<<<<<<<<<<<<<<<<<<<<<<<





 SETUP PLANE WAVES FOR WAVE FUNCTIONS
     energy cutoff for wavefunc (unit:Ry) = 60
            [fft grid for wave functions] = 30, 30, 50
                    number of plane waves = 4951
                         number of sticks = 241

 PARALLEL PW FOR WAVE FUNCTIONS
     PROC   COLUMNS(POT)             PW
        1            241           4951
 --------------- sum -------------------
        1            241           4951
 DONE : INIT PLANEWAVE Time : 0.335808 (SEC)

 DONE : INIT CHARGE Time : 0.455571 (SEC)

                                     npwx = 2539

 SETUP NONLOCAL PSEUDOPOTENTIALS IN PLANE WAVE BASIS
 Mg non-local projectors:
 projector 1 L=0
 projector 2 L=1
 projector 3 L=3
      TOTAL NUMBER OF NONLOCAL PROJECTORS = 22
 DONE : LOCAL POTENTIAL Time : 0.61772 (SEC)


 Init Non-Local PseudoPotential table : 
 Init Non-Local-Pseudopotential done.
 DONE : NON-LOCAL POTENTIAL Time : 0.628934 (SEC)

                                 init_chg = atomic
 DONE : INIT POTENTIAL Time : 0.667236 (SEC)


 Make real space PAO into reciprocal space.
       max mesh points in Pseudopotential = 421
     dq(describe PAO in reciprocal space) = 0.01
                                    max q = 934

 number of pseudo atomic orbitals for Mg is 4
 the unit of pseudo atomic orbital is 0.999998, renormalize to 1
 the unit of pseudo atomic orbital is 1.02763, renormalize to 1
 the unit of pseudo atomic orbital is 0.99852, renormalize to 1
 the unit of pseudo atomic orbital is 1.06109, renormalize to 1
 DONE : INIT BASIS Time : 0.698144 (SEC)


 -------------------------------------------
 SELF-CONSISTENT
 -------------------------------------------

 PW ALGORITHM --------------- ION=   1  ELEC=   1--------------------------------
 Notice: Threshold on eigenvalues was too large.
 hsover_error=0.04 > DRHO=0.00708856
 Origin diag_ethr = 0.01
 New    diag_ethr = 0.000177214

 Density error is 0.00825744628232
                          Error Threshold = 0.000177214003562

       Energy                       Rydberg                            eV
   E_KohnSham                 -5.7375553884                -78.0634458729
     E_Harris                -5.73893380384                 -78.082200177
      E_Fermi               +0.251887554698                +3.42710599918

 PW ALGORITHM --------------- ION=   1  ELEC=   2--------------------------------

 Density error is 0.000675612765361
                          Error Threshold = 0.000206436157058

       Energy                       Rydberg                            eV
   E_KohnSham                 -5.7375575047                -78.0634746666
     E_Harris                 -5.7376831734                 -78.065184477
      E_Fermi               +0.249971767624                +3.40104037882

 PW ALGORITHM --------------- ION=   1  ELEC=   3--------------------------------

 Density error is 3.59949943175e-07
                          Error Threshold = 1.6890319134e-05

       Energy                       Rydberg                            eV
   E_KohnSham                -5.73757012578                -78.0636463852
     E_Harris                -5.73757018499                -78.0636471907
      E_Fermi               +0.249559860714                 +3.3954360978

 PW ALGORITHM --------------- ION=   1  ELEC=   4--------------------------------

 Density error is 3.85881039466e-08
                          Error Threshold = 8.99874857937e-09

       Energy                       Rydberg                            eV
   E_KohnSham                 -5.7375709894                -78.0636581354
     E_Harris                -5.73757099147                -78.0636581634
      E_Fermi               +0.249589778507                +3.39584315025

 PW ALGORITHM --------------- ION=   1  ELEC=   5--------------------------------

 Density error is 4.18623790545e-09
                          Error Threshold = 9.64702598665e-10

       Energy                       Rydberg                            eV
   E_KohnSham                -5.73757098864                 -78.063658125
     E_Harris                -5.73757099029                -78.0636581474
      E_Fermi                +0.24958374352                +3.39576104004

 PW ALGORITHM --------------- ION=   1  ELEC=   6--------------------------------

 Density error is 2.30214457641e-12
                          Error Threshold = 1.04655947636e-10

       Energy                       Rydberg                            eV
   E_KohnSham                -5.73757098876                -78.0636581266
     E_Harris                -5.73757098876                -78.0636581266
       E_band               +0.220373054043                +2.99832922065
   E_one_elec                +2.51793897979                +34.2583173415
    E_Hartree              +0.0089710924735               +0.122057974925
         E_xc                -4.00296565921                -54.4631418635
      E_Ewald                -4.26110567556                -57.9753169677
      E_demet            -0.000409726267715              -0.0055746118612
      E_descf                            +0                            +0
     E_efield                            +0                            +0
        E_exx                            +0                            +0
      E_Fermi                +0.24958490635                +3.39577686116

 charge density convergence is achieved
 final etot is -78.0636581266 eV

 STATE ENERGY(eV) AND OCCUPATIONS    NSPIN == 1
 1/133 kpoint (Cartesian) = 0 0 0 (2539 pws)
       1       -3.37713     0.00115741
       2        1.77064     0.00115741
       3        2.13344     0.00115741
       4        14.2839        0.00000
       5        14.2839        0.00000
       6        14.3006        0.00000
       7        14.3006        0.00000
       8        15.0710        0.00000
       9        16.5385        0.00000
      10        17.2582        0.00000
      11        18.4048        0.00000
      12        18.4048        0.00000
      13        19.0777        0.00000
      14        20.2931        0.00000
      15        20.2931        0.00000

 2/133 kpoint (Cartesian) = 0.916667 0.625463 0.00000 (2513 pws)
       1       -3.24205     0.00694444
       2        1.89454     0.00694444
       3        2.26488     0.00694444
       4        11.9993        0.00000
       5        13.0475        0.00000
       6        13.8436        0.00000
       7        15.7379        0.00000
       8        15.8774        0.00000
       9        16.5972        0.00000
      10        17.1296        0.00000
      11        17.3930        0.00000
      12        17.6547        0.00000
      13        17.6839        0.00000
      14        17.6858        0.00000
      15        21.2781        0.00000

 3/133 kpoint (Cartesian) = 0.833333 0.673575 0.00000 (2527 pws)
       1       -2.83791     0.00694444
       2        2.26634     0.00694444
       3        2.65467     0.00694444
       4        9.51473        0.00000
       5        12.0290        0.00000
       6        12.6672        0.00000
       7        14.1609        0.00000
       8        14.8057        0.00000
       9        16.5546        0.00000
      10        16.5998        0.00000
      11        16.7739        0.00000
      12        17.6353        0.00000
      13        17.7038        0.00000
      14        18.4076        0.00000
      15        23.0137        0.00000

 4/133 kpoint (Cartesian) = 0.750000 0.721688 0.00000 (2519 pws)
       1       -2.16800     0.00694444
       2        2.88622     0.00694444
       3        3.28234     0.00655874
       4        7.21215        0.00000
       5        11.2387        0.00000
       6        11.3726        0.00000
       7        11.8419        0.00000
       8        13.2534        0.00000
       9        15.7231        0.00000
      10        15.9708        0.00000
      11        16.7637        0.00000
      12        17.2578        0.00000
      13        18.8629        0.00000
      14        19.5567        0.00000
      15        24.8934        0.00000

 5/133 kpoint (Cartesian) = 0.666667 0.769800 0.00000 (2517 pws)
       1       -1.23783     0.00694444
       2        3.75414    1.67051e-09
       3        3.98195    7.70988e-19
       4        5.28761        0.00000
       5        9.73973        0.00000
       6        9.87524        0.00000
       7        10.6755        0.00000
       8        12.2061        0.00000
       9        15.0843        0.00000
      10        15.4956        0.00000
      11        16.5550        0.00000
      12        16.6712        0.00000
      13        19.6112        0.00000
      14        21.7221        0.00000
      15        26.3997        0.00000

 6/133 kpoint (Cartesian) = 0.583333 0.817913 0.00000 (2491 pws)
       1     -0.0556548     0.00694444
       2        2.97845     0.00694444
       3        4.86757        0.00000
       4        5.51042        0.00000
       5        7.88051        0.00000
       6        8.30421        0.00000
       7        10.3381        0.00000
       8        11.6523        0.00000
       9        14.6979        0.00000
      10        15.2073        0.00000
      11        16.3116        0.00000
      12        16.3464        0.00000
      13        24.0564        0.00000
      14        26.9565        0.00000
      15        27.0595        0.00000

 7/133 kpoint (Cartesian) = 0.500000 0.866025 0.00000 (2484 pws)
       1        1.36156     0.00347222
       2        1.36783     0.00347222
       3        6.05673        0.00000
       4        6.44208        0.00000
       5        6.58909        0.00000
       6        7.01559        0.00000
       7        10.2258        0.00000
       8        11.4785        0.00000
       9        14.5686        0.00000
      10        15.1111        0.00000
      11        16.1915        0.00000
      12        16.2653        0.00000
      13        25.8809        0.00000
      14        27.0008        0.00000
      15        27.0333        0.00000

 8/133 kpoint (Cartesian) = 0.916667 1.58771 0.00000 (2509 pws)
       1       -2.97244     0.00694444
       2        2.14239     0.00694444
       3        2.52561     0.00694444
       4        10.7085        0.00000
       5        10.9468        0.00000
       6        14.8893        0.00000
       7        14.9186        0.00000
       8        15.1736        0.00000
       9        15.6998        0.00000
      10        15.9252        0.00000
      11        16.1600        0.00000
      12        17.4757        0.00000
      13        17.5954        0.00000
      14        19.5710        0.00000
      15        20.7079        0.00000

 9/133 kpoint (Cartesian) = 0.916667 1.49149 0.00000 (2518 pws)
       1       -2.43542      0.0138889
       2        2.63824      0.0138889
       3        3.03635      0.0138889
       4        8.41374        0.00000
       5        9.86201        0.00000
       6        13.0300        0.00000
       7        13.2824        0.00000
       8        14.6564        0.00000
       9        14.6681        0.00000
      10        14.9149        0.00000
      11        16.9526        0.00000
      12        17.9080        0.00000
      13        17.9978        0.00000
      14        19.4194        0.00000
      15        19.7813        0.00000

 10/133 kpoint (Cartesian) = 0.916667 1.39526 0.00000 (2517 pws)
       1       -1.63535      0.0138889
       2        3.38223     0.00799257
       3        3.74960    4.65073e-09
       4        6.25304        0.00000
       5        9.07191        0.00000
       6        10.8450        0.00000
       7        11.4795        0.00000
       8        13.8758        0.00000
       9        13.9017        0.00000
      10        14.3433        0.00000
      11        17.7955        0.00000
      12        18.4066        0.00000
      13        18.9318        0.00000
      14        18.9799        0.00000
      15        20.2102        0.00000

 11/133 kpoint (Cartesian) = 0.916667 1.29904 0.00000 (2512 pws)
       1      -0.579048      0.0138889
       2        3.84192    2.56122e-12
       3        4.37359        0.00000
       4        5.15252        0.00000
       5        8.38186        0.00000
       6        8.86895        0.00000
       7        9.90390        0.00000
       8        13.3597        0.00000
       9        13.3999        0.00000
      10        13.9342        0.00000
      11        17.8320        0.00000
      12        18.1088        0.00000
      13        19.5995        0.00000
      14        20.1464        0.00000
      15        21.8200        0.00000

 12/133 kpoint (Cartesian) = 0.916667 1.20281 0.00000 (2497 pws)
       1       0.723128      0.0138889
       2        2.24947      0.0138889
       3        5.60147        0.00000
       4        6.14861        0.00000
       5        7.14491        0.00000
       6        7.41240        0.00000
       7        9.04851        0.00000
       8        13.1030        0.00000
       9        13.1488        0.00000
      10        13.7244        0.00000
      11        17.7544        0.00000
      12        17.8820        0.00000
      13        20.6451        0.00000
      14        21.2786        0.00000
      15        22.7309        0.00000

 13/133 kpoint (Cartesian) = 0.833333 1.44338 0.00000 (2513 pws)
       1       -1.76823     0.00694444
       2        3.25824     0.00675911
       3        3.64621    1.51145e-06
       4        7.39193        0.00000
       5        7.74901        0.00000
       6        11.8980        0.00000
       7        12.4707        0.00000
       8        12.6142        0.00000
       9        13.2063        0.00000
      10        16.0701        0.00000
      11        16.6861        0.00000
      12        18.5279        0.00000
      13        18.5398        0.00000
      14        20.9853        0.00000
      15        21.8235        0.00000

 14/133 kpoint (Cartesian) = 0.833333 1.34715 0.00000 (2507 pws)
       1      -0.841944      0.0138889
       2        4.12607        0.00000
       3        4.31939        0.00000
       4        5.60209        0.00000
       5        7.00597        0.00000
       6        10.0716        0.00000
       7        10.8303        0.00000
       8        11.7057        0.00000
       9        12.4359        0.00000
      10        15.8383        0.00000
      11        18.3923        0.00000
      12        19.2383        0.00000
      13        19.2941        0.00000
      14        20.8856        0.00000
      15        21.2366        0.00000

 15/133 kpoint (Cartesian) = 0.833333 1.25093 0.00000 (2482 pws)
       1       0.335036      0.0138889
       2        3.35242      0.0101213
       3        5.23860        0.00000
       4        5.61068        0.00000
       5        6.73258        0.00000
       6        8.24380        0.00000
       7        9.21671        0.00000
       8        11.2944        0.00000
       9        12.0673        0.00000
      10        15.5300        0.00000
      11        19.5021        0.00000
      12        19.9673        0.00000
      13        20.5647        0.00000
      14        20.7485        0.00000
      15        21.8999        0.00000

 16/133 kpoint (Cartesian) = 0.833333 1.15470 0.00000 (2484 pws)
       1        1.74738     0.00694444
       2        1.74960     0.00694444
       3        5.97797        0.00000
       4        6.42025        0.00000
       5        6.81814        0.00000
       6        6.93095        0.00000
       7        8.27893        0.00000
       8        11.1622        0.00000
       9        11.9473        0.00000
      10        15.4223        0.00000
      11        19.6279        0.00000
      12        20.1302        0.00000
      13        21.3579        0.00000
      14        21.6926        0.00000
      15        22.6117        0.00000

 17/133 kpoint (Cartesian) = 0.750000 1.29904 0.00000 (2497 pws)
       1       0.205190     0.00694444
       2        4.45435        0.00000
       3        4.76953        0.00000
       4        5.11608        0.00000
       5        6.20743        0.00000
       6        9.33732        0.00000
       7        9.95664        0.00000
       8        10.0881        0.00000
       9        10.9104        0.00000
      10        17.8192        0.00000
      11        18.3709        0.00000
      12        20.0900        0.00000
      13        20.3117        0.00000
      14        22.3374        0.00000
      15        23.2891        0.00000

 18/133 kpoint (Cartesian) = 0.750000 1.20281 0.00000 (2476 pws)
       1        1.49506      0.0138889
       2        3.00470      0.0138889
       3        4.45824        0.00000
       4        6.33808        0.00000
       5        7.04407        0.00000
       6        7.86083        0.00000
       7        8.87061        0.00000
       8        9.46074        0.00000
       9        10.3879        0.00000
      10        17.8865        0.00000
      11        20.3598        0.00000
      12        21.1010        0.00000
      13        21.2018        0.00000
      14        22.2021        0.00000
      15        22.4443        0.00000

 19/133 kpoint (Cartesian) = 0.666667 1.15470 0.00000 (2460 pws)
       1        2.88235     0.00231481
       2        2.88600     0.00231481
       3        2.88601     0.00231481
       4        7.51240        0.00000
       5        7.51240        0.00000
       6        7.64245        0.00000
       7        8.26067        0.00000
       8        9.13657        0.00000
       9        9.13657        0.00000
      10        20.1469        0.00000
      11        20.4054        0.00000
      12        20.4054        0.00000
      13        22.2023        0.00000
      14        22.2023        0.00000
      15        22.4324        0.00000

 20/133 kpoint (Cartesian) = 0.00000 0.00000 0.560508 (2539 pws)
       1       -3.33922     0.00231481
       2        1.09972     0.00231481
       3        2.86992     0.00231481
       4        14.3148        0.00000
       5        14.3148        0.00000
       6        14.3276        0.00000
       7        14.3276        0.00000
       8        14.5780        0.00000
       9        17.9790        0.00000
      10        17.9790        0.00000
      11        18.2283        0.00000
      12        18.2283        0.00000
      13        19.5667        0.00000
      14        19.5667        0.00000
      15        20.6376        0.00000

 21/133 kpoint (Cartesian) = 0.916667 0.625463 0.560508 (2522 pws)
       1       -3.20419      0.0138889
       2        1.22792      0.0138889
       3        2.99683      0.0138889
[...]
      14        20.6492        0.00000
      15        22.9198        0.00000

 108/133 kpoint (Cartesian) = 0.833333 1.44338 0.356687 (2503 pws)
       1      -0.840094      0.0138889
       2      0.0419332      0.0138889
       3        7.94294        0.00000
       4        8.14975        0.00000
       5        8.55973        0.00000
       6        9.21539        0.00000
       7        9.90554        0.00000
       8        11.4485        0.00000
       9        16.8193        0.00000
      10        17.0735        0.00000
      11        17.4440        0.00000
      12        17.4799        0.00000
      13        18.1876        0.00000
      14        18.7616        0.00000
      15        20.1465        0.00000

 109/133 kpoint (Cartesian) = 0.833333 1.34715 0.356687 (2506 pws)
       1      0.0763766      0.0277778
       2       0.947556      0.0277778
       3        6.17898        0.00000
       4        6.90936        0.00000
       5        7.79963        0.00000
       6        8.53348        0.00000
       7        9.94106        0.00000
       8        12.1497        0.00000
       9        15.2950        0.00000
      10        16.5400        0.00000
      11        16.8869        0.00000
      12        17.6490        0.00000
      13        18.3472        0.00000
      14        19.0429        0.00000
      15        20.1101        0.00000

 110/133 kpoint (Cartesian) = 0.833333 1.25093 0.356687 (2500 pws)
       1        1.23674      0.0277778
       2        2.08193      0.0277778
       3        4.36364        0.00000
       4        5.16662        0.00000
       5        7.42165        0.00000
       6        8.21846        0.00000
       7        10.8547        0.00000
       8        13.1107        0.00000
       9        13.6774        0.00000
      10        15.6105        0.00000
      11        16.6016        0.00000
      12        16.9653        0.00000
      13        17.6455        0.00000
      14        18.9910        0.00000
      15        22.0674        0.00000

 111/133 kpoint (Cartesian) = 0.833333 1.15470 0.356687 (2494 pws)
       1        2.56244      0.0138889
       2        2.57467      0.0138889
       3        3.63116    6.56694e-06
       4        3.63643    5.02764e-06
       5        7.29791        0.00000
       6        8.10585        0.00000
       7        12.0371        0.00000
       8        12.1831        0.00000
       9        14.3560        0.00000
      10        14.4104        0.00000
      11        16.5161        0.00000
      12        16.6985        0.00000
      13        17.4651        0.00000
      14        18.9067        0.00000
      15        24.1492        0.00000

 112/133 kpoint (Cartesian) = 0.750000 1.29904 0.356687 (2497 pws)
       1        1.10986      0.0138889
       2        1.96299      0.0138889
       3        5.55134        0.00000
       4        5.67817        0.00000
       5        6.67600        0.00000
       6        6.82652        0.00000
       7        10.7280        0.00000
       8        13.0510        0.00000
       9        14.9129        0.00000
      10        15.0517        0.00000
      11        17.2636        0.00000
      12        17.4647        0.00000
      13        19.0010        0.00000
      14        19.4252        0.00000
      15        20.1167        0.00000

 113/133 kpoint (Cartesian) = 0.750000 1.20281 0.356687 (2496 pws)
       1        2.36774      0.0277778
       2        3.11961      0.0277763
       3        4.04529        0.00000
       4        4.70500        0.00000
       5        5.73238        0.00000
       6        6.44050        0.00000
       7        11.8883        0.00000
       8        13.2672        0.00000
       9        14.1879        0.00000
      10        14.8520        0.00000
      11        15.8760        0.00000
      12        17.2072        0.00000
      13        19.0738        0.00000
      14        19.7440        0.00000
      15        21.7855        0.00000

 114/133 kpoint (Cartesian) = 0.666667 1.15470 0.356687 (2496 pws)
       1        3.57126    3.17252e-05
       2        3.57126    3.17235e-05
       3        3.75755    8.66702e-10
       4        4.59750        0.00000
       5        5.10342        0.00000
       6        5.10342        0.00000
       7        13.0720        0.00000
       8        13.2234        0.00000
       9        13.2234        0.00000
      10        15.5955        0.00000
      11        15.7814        0.00000
      12        15.7814        0.00000
      13        21.1106        0.00000
      14        21.5175        0.00000
      15        21.5175        0.00000

 115/133 kpoint (Cartesian) = 0.00000 0.00000 0.305732 (2484 pws)
       1       -2.02134     0.00115741
       2       -2.02134     0.00115741
       3        8.27604        0.00000
       4        8.27604        0.00000
       5        15.0303        0.00000
       6        15.0303        0.00000
       7        15.0303        0.00000
       8        15.0303        0.00000
       9        15.9568        0.00000
      10        15.9568        0.00000
      11        15.9568        0.00000
      12        15.9568        0.00000
      13        23.6678        0.00000
      14        23.6678        0.00000
      15        23.6678        0.00000

 116/133 kpoint (Cartesian) = 0.916667 0.625463 0.305732 (2506 pws)
       1       -1.88807     0.00694444
       2       -1.88807     0.00694444
       3        8.38534        0.00000
       4        8.38534        0.00000
       5        13.1461        0.00000
       6        13.1461        0.00000
       7        14.1592        0.00000
       8        14.1592        0.00000
       9        15.5411        0.00000
      10        15.5411        0.00000
      11        17.0567        0.00000
      12        17.0567        0.00000
      13        18.6653        0.00000
      14        18.6653        0.00000
      15        23.2309        0.00000

 117/133 kpoint (Cartesian) = 0.833333 0.673575 0.305732 (2506 pws)
       1       -1.48939     0.00694444
       2       -1.48938     0.00694444
       3        8.67776        0.00000
       4        8.67776        0.00000
       5        10.7759        0.00000
       6        10.7759        0.00000
       7        13.1681        0.00000
       8        13.1681        0.00000
       9        14.5690        0.00000
      10        14.5690        0.00000
      11        18.7266        0.00000
      12        18.7266        0.00000
      13        20.0397        0.00000
      14        22.4551        0.00000
      15        22.4551        0.00000

 118/133 kpoint (Cartesian) = 0.750000 0.721688 0.305732 (2510 pws)
       1      -0.828739     0.00694444
       2      -0.828737     0.00694444
       3        8.18640        0.00000
       4        8.18640        0.00000
       5        9.54732        0.00000
       6        9.54732        0.00000
       7        12.3821        0.00000
       8        12.3821        0.00000
       9        13.7184        0.00000
      10        13.7184        0.00000
      11        18.3852        0.00000
      12        20.5525        0.00000
      13        20.5525        0.00000
      14        21.8470        0.00000
      15        21.8470        0.00000

 119/133 kpoint (Cartesian) = 0.666667 0.769800 0.305732 (2506 pws)
       1      0.0874972     0.00694444
       2      0.0874987     0.00694444
       3        6.22014        0.00000
       4        6.22015        0.00000
       5        10.1740        0.00000
       6        10.1740        0.00000
       7        11.8182        0.00000
       8        11.8182        0.00000
       9        13.0992        0.00000
      10        13.0992        0.00000
      11        16.5775        0.00000
      12        16.5775        0.00000
      13        21.0322        0.00000
      14        21.0322        0.00000
      15        22.9770        0.00000

 120/133 kpoint (Cartesian) = 0.583333 0.817913 0.305732 (2502 pws)
       1        1.24512     0.00694444
       2        1.24512     0.00694444
       3        4.37310        0.00000
       4        4.37310        0.00000
       5        10.9624        0.00000
       6        10.9624        0.00000
       7        11.4794        0.00000
       8        11.4794        0.00000
       9        12.7715        0.00000
      10        12.7715        0.00000
      11        15.0682        0.00000
      12        15.0682        0.00000
      13        20.7572        0.00000
      14        20.7572        0.00000
      15        25.1721        0.00000

 121/133 kpoint (Cartesian) = 0.500000 0.866025 0.305732 (2484 pws)
       1        2.38167     0.00347222
       2        2.38167     0.00347222
       3        3.00403     0.00347222
       4        3.00403     0.00347222
       5        11.3664        0.00000
       6        11.3664        0.00000
       7        11.3780        0.00000
       8        11.3780        0.00000
       9        12.7444        0.00000
      10        12.7444        0.00000
      11        14.3294        0.00000
      12        14.3294        0.00000
      13        20.6547        0.00000
      14        20.6547        0.00000
      15        26.6278        0.00000

 122/133 kpoint (Cartesian) = 0.916667 1.58771 0.305732 (2516 pws)
       1       -1.62209     0.00694444
       2       -1.62209     0.00694444
       3        8.59246        0.00000
       4        8.59246        0.00000
       5        11.6825        0.00000
       6        11.6825        0.00000
       7        12.5582        0.00000
       8        12.5582        0.00000
       9        16.5241        0.00000
      10        16.5241        0.00000
      11        16.6609        0.00000
      12        16.6609        0.00000
      13        20.6810        0.00000
      14        20.6810        0.00000
      15        21.1657        0.00000

 123/133 kpoint (Cartesian) = 0.916667 1.49149 0.305732 (2514 pws)
       1       -1.09241      0.0138889
       2       -1.09241      0.0138889
       3        8.83805        0.00000
       4        8.83805        0.00000
       5        9.73676        0.00000
       6        9.73676        0.00000
       7        11.4431        0.00000
       8        11.4431        0.00000
       9        15.6992        0.00000
      10        15.6992        0.00000
      11        18.3152        0.00000
      12        18.3152        0.00000
      13        19.4732        0.00000
      14        19.4732        0.00000
      15        20.9490        0.00000

 124/133 kpoint (Cartesian) = 0.916667 1.39526 0.305732 (2508 pws)
       1      -0.303822      0.0138889
       2      -0.303820      0.0138889
       3        7.29370        0.00000
       4        7.29370        0.00000
       5        9.61066        0.00000
       6        9.61066        0.00000
       7        10.9143        0.00000
       8        10.9143        0.00000
       9        14.9335        0.00000
      10        14.9335        0.00000
      11        17.5577        0.00000
      12        17.5577        0.00000
      13        19.8392        0.00000
      14        19.8392        0.00000
      15        20.9148        0.00000

 125/133 kpoint (Cartesian) = 0.916667 1.29904 0.305732 (2498 pws)
       1       0.734704      0.0138889
       2       0.734706      0.0138889
       3        5.35848        0.00000
       4        5.35848        0.00000
       5        9.66964        0.00000
       6        9.66964        0.00000
       7        11.2507        0.00000
       8        11.2507        0.00000
       9        14.2470        0.00000
      10        14.2470        0.00000
      11        16.0140        0.00000
      12        16.0140        0.00000
      13        19.6727        0.00000
      14        19.6727        0.00000
      15        22.7512        0.00000

 126/133 kpoint (Cartesian) = 0.916667 1.20281 0.305732 (2490 pws)
       1        1.98847      0.0138889
       2        1.98847      0.0138889
       3        3.64388    3.41903e-06
       4        3.64388    3.41878e-06
       5        9.54184        0.00000
       6        9.54184        0.00000
       7        12.2179        0.00000
       8        12.2179        0.00000
       9        13.3498        0.00000
      10        13.3498        0.00000
      11        15.1507        0.00000
      12        15.1507        0.00000
      13        19.4746        0.00000
      14        19.4746        0.00000
      15        23.9072        0.00000

 127/133 kpoint (Cartesian) = 0.833333 1.44338 0.305732 (2516 pws)
       1      -0.434714     0.00694444
       2      -0.434713     0.00694444
       3        8.35141        0.00000
       4        8.35141        0.00000
       5        8.71745        0.00000
       6        8.71745        0.00000
       7        10.4512        0.00000
       8        10.4512        0.00000
       9        17.3413        0.00000
      10        17.3413        0.00000
      11        17.4858        0.00000
      12        17.4858        0.00000
      13        18.5462        0.00000
      14        18.5462        0.00000
      15        19.5916        0.00000

 128/133 kpoint (Cartesian) = 0.833333 1.34715 0.305732 (2504 pws)
       1       0.477013      0.0138889
       2       0.477014      0.0138889
       3        6.53692        0.00000
       4        6.53692        0.00000
       5        8.14725        0.00000
       6        8.14725        0.00000
       7        10.9829        0.00000
       8        10.9829        0.00000
       9        16.1957        0.00000
      10        16.1957        0.00000
      11        17.4817        0.00000
      12        17.4817        0.00000
      13        18.2051        0.00000
      14        18.2051        0.00000
      15        20.2306        0.00000

 129/133 kpoint (Cartesian) = 0.833333 1.25093 0.305732 (2502 pws)
       1        1.62746      0.0138889
       2        1.62746      0.0138889
       3        4.73235        0.00000
       4        4.73235        0.00000
       5        7.79316        0.00000
       6        7.79316        0.00000
       7        11.9769        0.00000
       8        11.9769        0.00000
       9        14.7003        0.00000
      10        14.7003        0.00000
      11        17.0345        0.00000
      12        17.0345        0.00000
      13        17.8970        0.00000
      14        17.8970        0.00000
      15        22.3908        0.00000

 130/133 kpoint (Cartesian) = 0.833333 1.15470 0.305732 (2490 pws)
       1        2.74707     0.00694444
       2        2.74707     0.00694444
       3        3.38826     0.00376417
       4        3.38826     0.00376412
       5        7.67296        0.00000
       6        7.67296        0.00000
       7        13.0725        0.00000
       8        13.0725        0.00000
       9        13.4175        0.00000
      10        13.4175        0.00000
      11        16.8961        0.00000
      12        16.8961        0.00000
      13        17.7793        0.00000
      14        17.7793        0.00000
      15        24.3426        0.00000

 131/133 kpoint (Cartesian) = 0.750000 1.29904 0.305732 (2490 pws)
       1        1.50308     0.00694444
       2        1.50308     0.00694444
       3        5.75609        0.00000
       4        5.75610        0.00000
       5        6.54692        0.00000
       6        6.54692        0.00000
       7        11.8715        0.00000
       8        11.8715        0.00000
       9        15.7694        0.00000
      10        15.7694        0.00000
      11        16.5453        0.00000
      12        16.5453        0.00000
      13        19.2556        0.00000
      14        19.2556        0.00000
      15        20.1113        0.00000

 132/133 kpoint (Cartesian) = 0.750000 1.20281 0.305732 (2504 pws)
       1        2.73281      0.0138889
       2        2.73282      0.0138889
       3        4.34552        0.00000
       4        4.34552        0.00000
       5        6.02662        0.00000
       6        6.02663        0.00000
       7        13.0163        0.00000
       8        13.0163        0.00000
       9        14.4678        0.00000
      10        14.4678        0.00000
      11        16.0838        0.00000
      12        16.0838        0.00000
      13        19.3695        0.00000
      14        19.3695        0.00000
      15        22.0831        0.00000

 133/133 kpoint (Cartesian) = 0.666667 1.15470 0.305732 (2520 pws)
       1        3.67092    1.28715e-07
       2        3.67092    1.28704e-07
       3        4.14259        0.00000
       4        4.14260        0.00000
       5        4.93717        0.00000
       6        4.93717        0.00000
       7        13.9363        0.00000
       8        13.9363        0.00000
       9        14.3006        0.00000
      10        14.3006        0.00000
      11        15.0209        0.00000
      12        15.0209        0.00000
      13        21.4535        0.00000
      14        23.0963        0.00000
      15        23.0963        0.00000



 --------------------------------------------
 !FINAL_ETOT_IS -78.06365812664434 eV
 --------------------------------------------






  |CLASS_NAME---------|NAME---------------|TIME(Sec)-----|CALLS----|AVG------|PER%-------
                                      total         57.339        19       3.0   1.0e+02%
                 Driver         driver_line         57.332         1       57.    1.e+02%
               PW_Basis  setup_struc_factor        0.11872         1      0.12      0.21%
              Potential            v_of_rho        0.14900         7     0.021      0.26%
          XC_Functional                v_xc        0.13610         7     0.019      0.24%
          ESolver_KS_PW                 Run         56.630         1       57.       99.%
              HSolverPW               solve         56.448         7       8.1       98.%
            pp_cell_vnl              getvnl         1.5151       931    0.0016       2.6%
                 WF_igk              get_sk        0.13033      2128   6.1e-05      0.23%
              WF_atomic          atomic_wfc        0.32482       133    0.0024      0.57%
        DiagoIterAssist      diagH_subspace         10.399       798     0.013       18.%
             OperatorPW                hPsi         47.078     48353   0.00097       82.%
               Operator          EkineticPW        0.33462     48353   6.9e-06      0.58%
               Operator              VeffPW         38.810     48353   0.00080       68.%
             PW_Basis_K          recip2real         17.359     63894   0.00027       30.%
             PW_Basis_K    gathers_scatterp         3.3747     63894   5.3e-05       5.9%
             PW_Basis_K          real2recip         14.579     61786   0.00024       25.%
             PW_Basis_K    gatherp_scatters        0.89332     61786   1.4e-05       1.6%
               Operator          NonlocalPW         7.7283     48353   0.00016       13.%
               Nonlocal     add_nonlocal_pp         2.8984     48353   6.0e-05       5.1%
        DiagoIterAssist        diagH_LAPACK        0.15523       798   0.00019      0.27%
                DiagoCG           diag_once         43.395       931     0.047       76.%
            ElecStatePW            psiToRho        0.74421         7      0.11       1.3%
 ----------------------------------------------------------------------------------------

 CLASS_NAME---------|NAME---------------|MEMORY(MB)--------
                                         89.21
             wavefunc                 psi          77.29
         Charge_Pulay                Rrho          2.747
         Charge_Pulay               dRrho          2.403
         Charge_Pulay                drho          2.403
 ----------------------------------------------------------

 Start  Time  : Mon Sep  5 19:54:49 2022
 Finish Time  : Mon Sep  5 19:55:46 2022
 Total  Time  : 0 h 0 mins 57 secs 
