 *********************************************************
 *                                                       *
 *                  WELCOME TO ABACUS v3.0               *
 *                                                       *
 *            'Atomic-orbital Based Ab-initio            *
 *                  Computation at UStc'                 *
 *                                                       *
 *          Website: http://abacus.ustc.edu.cn/          *
 *                                                       *
 *********************************************************
 Tue May  2 12:51:25 2023
 MAKE THE DIR         : OUT.blpstest/
Notice: symbol 'mg_locpsp' is not an element symbol!!!! set the covalent radius to be 0.
 UNIFORM GRID DIM     : 27 * 27 * 27
 UNIFORM GRID DIM(BIG): 27 * 27 * 27
func,idXC_GGA_X_PBE 101
func,idXC_GGA_C_PBE 130
 DONE(0.154542   SEC) : SETUP UNITCELL
 DONE(0.214137   SEC) : SYMMETRY
 DONE(0.214973   SEC) : INIT K-POINTS
 ---------------------------------------------------------
 Self-consistent calculations for electrons
 ---------------------------------------------------------
 SPIN    KPOINTS         PROCESSORS  
 1       1               1           
 ---------------------------------------------------------
 Use plane wave basis
 ---------------------------------------------------------
 ELEMENT NATOM       XC          
 Mg      1           
 ---------------------------------------------------------
 Initial plane wave basis and FFT box
 ---------------------------------------------------------
 DONE(0.216688   SEC) : INIT BASIS
 DONE(0.216749   SEC) : INIT PHI
 DONE(0.244952   SEC) : LOCAL POTENTIAL
 DONE(0.245066   SEC) : NON-LOCAL POTENTIAL
 START CHARGE      : atomic
 DONE(0.34226    SEC) : INIT POTENTIAL
 DONE(0.34249    SEC) : INIT OPTIMIZATION
Default type: double
 DONE(0.344443   SEC) : INIT KEDF
======================== Running OFDFT ========================
Iter        Etot(Ha)          Theta      PotNorm     deltaE(Ha)
0     -8.326897764928e-01   2.000e-01   9.804e-02   -8.327e-01  
1     -8.660073546271e-01   7.666e-02   6.616e-02   -3.332e-02  
2     -8.774892293235e-01   5.595e-02   2.374e-02   -1.148e-02  
3     -8.779827685966e-01   1.333e-02   1.534e-03   -4.935e-04  
4     -8.779845217938e-01   5.805e-04   1.284e-04   -1.753e-06  
5     -8.779845363462e-01   7.822e-05   9.394e-06   -1.455e-08  
6     -8.779845364000e-01   3.355e-06   1.143e-06   -5.386e-11  

  |CLASS_NAME---------|NAME---------------|TIME(Sec)-----|CALLS----|AVG------|PER%-------
                       total               14.242         21        0.68      1e+02     %
   Driver              driver_line         14.215         1         14        1e+02     %
   PW_Basis            setuptransform      0.11335        1         0.11      0.8       %
   PW_Basis            recip2real          2.9882         2114      0.0014    21        %
   PW_Basis            gathers_scatterp    0.32877        2114      0.00016   2.3       %
   Potential           update_from_charge  8.2777         163       0.051     58        %
   Potential           cal_v_eff           8.2739         163       0.051     58        %
   H_Hartree_pw        v_hartree           0.75056        163       0.0046    5.3       %
   PW_Basis            real2recip          3.3919         2114      0.0016    24        %
   PW_Basis            gatherp_scatters    0.30215        2114      0.00014   2.1       %
   PotXC               cal_v_eff           7.471          163       0.046     52        %
   XC_Functional       v_xc                6.9211         82        0.084     49        %
   XC_Functional       v_xc_libxc          7.3638         163       0.045     52        %
   ESolver_OF          Run                 13.895         1         14        98        %
   KEDF_LKT            LKT_potential       4.6633         162       0.029     33        %
   KEDF_vW             vw_potential        0.632          162       0.0039    4.4       %
 ----------------------------------------------------------------------------------------

 START  Time  : Tue May  2 12:51:25 2023
 FINISH Time  : Tue May  2 12:51:39 2023
 TOTAL  Time  : 14
 SEE INFORMATION IN : OUT.blpstest/
