 *********************************************************
 *                                                       *
 *                  WELCOME TO ABACUS v3.0               *
 *                                                       *
 *            'Atomic-orbital Based Ab-initio            *
 *                  Computation at UStc'                 *
 *                                                       *
 *          Website: http://abacus.ustc.edu.cn/          *
 *                                                       *
 *********************************************************
 Tue May  2 23:18:21 2023
 MAKE THE DIR         : OUT.oftest/
Notice: symbol 'al_locpsp' is not an element symbol!!!! set the covalent radius to be 0.
 UNIFORM GRID DIM     : 27 * 27 * 27
 UNIFORM GRID DIM(BIG): 27 * 27 * 27
func,idXC_GGA_X_PBE 101
func,idXC_GGA_C_PBE 130
 DONE(0.139      SEC) : SETUP UNITCELL
 DONE(0.208814   SEC) : SYMMETRY
 DONE(0.209078   SEC) : INIT K-POINTS
 ---------------------------------------------------------
 Self-consistent calculations for electrons
 ---------------------------------------------------------
 SPIN    KPOINTS         PROCESSORS  
 1       1               1           
 ---------------------------------------------------------
 Use plane wave basis
 ---------------------------------------------------------
 ELEMENT NATOM       XC          
 Al      1           
 ---------------------------------------------------------
 Initial plane wave basis and FFT box
 ---------------------------------------------------------
 DONE(0.210183   SEC) : INIT BASIS
 DONE(0.210213   SEC) : INIT PHI
 DONE(0.254773   SEC) : LOCAL POTENTIAL
 DONE(0.254811   SEC) : NON-LOCAL POTENTIAL
 START CHARGE      : atomic
 DONE(0.334289   SEC) : INIT POTENTIAL
 DONE(0.33436    SEC) : INIT OPTIMIZATION
Default type: double
nnode = 10
nlayer = 3
feg_net_F = 0.540933
 DONE(0.411677   SEC) : INIT KEDF
======================== Running OFDFT ========================
Iter        Etot(Ha)          Theta      PotNorm     deltaE(Ha)
0     -2.020863215552e+00   2.000e-01   2.030e-01   -2.021e+00  
1     -2.029886596293e+00   3.438e-02   2.805e-01   -9.023e-03  
2     -2.096689658273e+00   7.416e-02   8.476e-02   -6.680e-02  
3     -2.097400984647e+00   5.478e-03   2.664e-02   -7.113e-04  
4     -2.097520691380e+00   3.642e-03   3.812e-03   -1.197e-04  
5     -2.097523080229e+00   4.534e-04   2.501e-03   -2.389e-06  
6     -2.097524207478e+00   4.785e-04   2.412e-04   -1.127e-06  
7     -2.097524217733e+00   2.259e-05   1.621e-04   -1.025e-08  
8     -2.097524221437e+00   1.514e-05   8.070e-05   -3.705e-09  

  |CLASS_NAME---------|NAME---------------|TIME(Sec)-----|CALLS----|AVG------|PER%-------
                       total               165.13         21        7.9       1e+02     %
   Driver              driver_line         165.13         1         1.7e+02   1e+02     %
   PW_Basis            setuptransform      0.12292        1         0.12      0.074     %
   PW_Basis            recip2real          3.6508         4068      0.0009    2.2       %
   PW_Basis            gathers_scatterp    0.26141        4068      6.4e-05   0.16      %
   Potential           update_from_charge  5.2775         204       0.026     3.2       %
   Potential           cal_v_eff           5.2756         204       0.026     3.2       %
   H_Hartree_pw        v_hartree           0.42644        204       0.0021    0.26      %
   PW_Basis            real2recip          3.6603         4068      0.0009    2.2       %
   PW_Basis            gatherp_scatters    0.15648        4068      3.8e-05   0.095     %
   PotXC               cal_v_eff           4.835          204       0.024     2.9       %
   XC_Functional       v_xc                81.896         102       0.8       50        %
   XC_Functional       v_xc_libxc          4.8251         204       0.024     2.9       %
   ESolver_OF          Run                 164.72         1         1.6e+02   1e+02     %
   KEDF_vW             vw_potential        0.41379        203       0.002     0.25      %
 ----------------------------------------------------------------------------------------

 START  Time  : Tue May  2 23:18:21 2023
 FINISH Time  : Tue May  2 23:21:06 2023
 TOTAL  Time  : 1.6e+02
 SEE INFORMATION IN : OUT.oftest/
