 *********************************************************
 *                                                       *
 *                  WELCOME TO ABACUS v3.0               *
 *                                                       *
 *            'Atomic-orbital Based Ab-initio            *
 *                  Computation at UStc'                 *
 *                                                       *
 *          Website: http://abacus.ustc.edu.cn/          *
 *                                                       *
 *********************************************************
 Wed May  3 01:09:39 2023
 MAKE THE DIR         : OUT.oftest/
Notice: symbol 'mg_locpsp' is not an element symbol!!!! set the covalent radius to be 0.
 UNIFORM GRID DIM     : 36 * 36 * 36
 UNIFORM GRID DIM(BIG): 36 * 36 * 36
func,idXC_GGA_X_PBE 101
func,idXC_GGA_C_PBE 130
 DONE(0.228755   SEC) : SETUP UNITCELL
 DONE(0.286332   SEC) : SYMMETRY
 DONE(0.286625   SEC) : INIT K-POINTS
 ---------------------------------------------------------
 Self-consistent calculations for electrons
 ---------------------------------------------------------
 SPIN    KPOINTS         PROCESSORS  
 1       1               1           
 ---------------------------------------------------------
 Use plane wave basis
 ---------------------------------------------------------
 ELEMENT NATOM       XC          
 Mg      1           
 ---------------------------------------------------------
 Initial plane wave basis and FFT box
 ---------------------------------------------------------
 DONE(0.289135   SEC) : INIT BASIS
 DONE(0.289167   SEC) : INIT PHI
 DONE(0.37933    SEC) : LOCAL POTENTIAL
 DONE(0.379369   SEC) : NON-LOCAL POTENTIAL
 START CHARGE      : atomic
 DONE(0.548527   SEC) : INIT POTENTIAL
 DONE(0.548767   SEC) : INIT OPTIMIZATION
Default type: double
nnode = 10
nlayer = 3
feg_net_F = 0.540933
 DONE(0.631055   SEC) : INIT KEDF
======================== Running OFDFT ========================
Iter        Etot(Ha)          Theta      PotNorm     deltaE(Ha)
0     -8.458093695006e-01   2.000e-01   1.105e-01   -8.458e-01  
1     -8.870659937674e-01   8.984e-02   9.375e-02   -4.126e-02  
2     -8.879289173097e-01   5.773e-03   5.742e-02   -8.629e-04  
3     -8.893178910051e-01   2.660e-02   1.007e-02   -1.389e-03  
4     -8.893427433176e-01   1.927e-03   3.834e-03   -2.485e-05  
5     -8.893452643824e-01   3.839e-04   3.067e-03   -2.521e-06  
6     -8.893461228324e-01   1.658e-04   1.582e-03   -8.584e-07  
7     -8.893480459960e-01   8.884e-04   5.282e-04   -1.923e-06  
8     -8.893481904503e-01   1.761e-04   4.457e-04   -1.445e-07  
9     -8.893482560680e-01   1.635e-04   1.033e-04   -6.562e-08  

  |CLASS_NAME---------|NAME---------------|TIME(Sec)-----|CALLS----|AVG------|PER%-------
                       total               374.04         21        18        1e+02     %
   Driver              driver_line         374.03         1         3.7e+02   1e+02     %
   PW_Basis            setuptransform      0.20234        1         0.2       0.054     %
   PW_Basis            recip2real          8.0393         4848      0.0017    2.1       %
   PW_Basis            gathers_scatterp    0.70528        4848      0.00015   0.19      %
   Potential           update_from_charge  12.204         243       0.05      3.3       %
   Potential           cal_v_eff           12.201         243       0.05      3.3       %
   H_Hartree_pw        v_hartree           0.93795        243       0.0039    0.25      %
   PW_Basis            real2recip          7.7522         4848      0.0016    2.1       %
   PW_Basis            gatherp_scatters    0.44916        4848      9.3e-05   0.12      %
   PotXC               cal_v_eff           11.228         243       0.046     3         %
   XC_Functional       v_xc                185.58         122       1.5       50        %
   XC_Functional       v_xc_libxc          11.21          243       0.046     3         %
   ESolver_OF          Run                 373.4          1         3.7e+02   1e+02     %
   KEDF_vW             vw_potential        0.91919        242       0.0038    0.25      %
 ----------------------------------------------------------------------------------------

 START  Time  : Wed May  3 01:09:39 2023
 FINISH Time  : Wed May  3 01:15:53 2023
 TOTAL  Time  : 3.7e+02
 SEE INFORMATION IN : OUT.oftest/
