 *********************************************************
 *                                                       *
 *                  WELCOME TO ABACUS v3.0               *
 *                                                       *
 *            'Atomic-orbital Based Ab-initio            *
 *                  Computation at UStc'                 *
 *                                                       *
 *          Website: http://abacus.ustc.edu.cn/          *
 *                                                       *
 *********************************************************
 Wed Apr 26 09:45:08 2023
 MAKE THE DIR         : OUT.oftest/
Notice: symbol 'Li_locpsp' is not an element symbol!!!! set the covalent radius to be 0.
 UNIFORM GRID DIM     : 45 * 45 * 45
 UNIFORM GRID DIM(BIG): 45 * 45 * 45
func,idXC_GGA_X_PBE 101
func,idXC_GGA_C_PBE 130
 DONE(0.286464   SEC) : SETUP UNITCELL
 DONE(0.345517   SEC) : SYMMETRY
 DONE(0.34581    SEC) : INIT K-POINTS
 ---------------------------------------------------------
 Self-consistent calculations for electrons
 ---------------------------------------------------------
 SPIN    KPOINTS         PROCESSORS  
 1       1               1           
 ---------------------------------------------------------
 Use plane wave basis
 ---------------------------------------------------------
 ELEMENT NATOM       XC          
 Li      2           
 ---------------------------------------------------------
 Initial plane wave basis and FFT box
 ---------------------------------------------------------
 DONE(0.404614   SEC) : INIT BASIS
 DONE(0.404648   SEC) : INIT PHI
 DONE(0.527106   SEC) : LOCAL POTENTIAL
 DONE(0.527149   SEC) : NON-LOCAL POTENTIAL
 START CHARGE      : atomic
 DONE(0.821148   SEC) : INIT POTENTIAL
 DONE(0.821667   SEC) : INIT OPTIMIZATION
Default type: double
nnode = 10
nlayer = 3
feg_net_F = 0.540933
 DONE(0.90973    SEC) : INIT KEDF
======================== Running OFDFT ========================
Iter        Etot(Ha)          Theta      PotNorm     deltaE(Ha)
0     -4.992350605296e-01   2.000e-01   6.314e-02   -4.992e-01  
1     -5.151407249911e-01   5.793e-02   1.382e-02   -1.591e-02  
2     -5.152344040534e-01   4.503e-03   2.004e-03   -9.368e-05  
3     -5.152381984870e-01   1.225e-03   9.411e-04   -3.794e-06  
4     -5.152388947051e-01   3.414e-04   7.024e-04   -6.962e-07  
5     -5.152391404165e-01   1.492e-04   5.893e-04   -2.457e-07  

  |CLASS_NAME---------|NAME---------------|TIME(Sec)-----|CALLS----|AVG------|PER%-------
                       total               371.28         21        18        1e+02     %
   Driver              driver_line         371.28         1         3.7e+02   1e+02     %
   PW_Basis            setuptransform      0.24681        1         0.25      0.066     %
   ppcell_vl           init_vloc           0.12228        1         0.12      0.033     %
   Charge              atomic_rho          0.13721        1         0.14      0.037     %
   PW_Basis            recip2real          10.202         3048      0.0033    2.7       %
   PW_Basis            gathers_scatterp    0.91754        3048      0.0003    0.25      %
   Potential           init_pot            0.1508         1         0.15      0.041     %
   Potential           update_from_charge  15.234         153       0.1       4.1       %
   Potential           cal_v_eff           15.227         153       0.1       4.1       %
   H_Hartree_pw        v_hartree           1.221          153       0.008     0.33      %
   PW_Basis            real2recip          10.157         3048      0.0033    2.7       %
   PW_Basis            gatherp_scatters    0.61788        3048      0.0002    0.17      %
   PotXC               cal_v_eff           13.958         153       0.091     3.8       %
   XC_Functional       v_xc                182.03         77        2.4       49        %
   XC_Functional       v_xc_libxc          13.936         153       0.091     3.8       %
   ESolver_OF          Run                 370.37         1         3.7e+02   1e+02     %
   KEDF_vW             vw_potential        1.1781         152       0.0078    0.32      %
 ----------------------------------------------------------------------------------------

 START  Time  : Wed Apr 26 09:45:08 2023
 FINISH Time  : Wed Apr 26 09:51:19 2023
 TOTAL  Time  : 3.7e+02
 SEE INFORMATION IN : OUT.oftest/
