 *********************************************************
 *                                                       *
 *                  WELCOME TO ABACUS v3.0               *
 *                                                       *
 *            'Atomic-orbital Based Ab-initio            *
 *                  Computation at UStc'                 *
 *                                                       *
 *          Website: http://abacus.ustc.edu.cn/          *
 *                                                       *
 *********************************************************
 Tue May  2 12:50:04 2023
 MAKE THE DIR         : OUT.blpstest/
Notice: symbol 'mg_locpsp' is not an element symbol!!!! set the covalent radius to be 0.
 UNIFORM GRID DIM     : 32 * 32 * 50
 UNIFORM GRID DIM(BIG): 32 * 32 * 50
func,idXC_GGA_X_PBE 101
func,idXC_GGA_C_PBE 130
 DONE(0.197756   SEC) : SETUP UNITCELL
 DONE(0.252998   SEC) : SYMMETRY
 DONE(0.253209   SEC) : INIT K-POINTS
 ---------------------------------------------------------
 Self-consistent calculations for electrons
 ---------------------------------------------------------
 SPIN    KPOINTS         PROCESSORS  
 1       1               1           
 ---------------------------------------------------------
 Use plane wave basis
 ---------------------------------------------------------
 ELEMENT NATOM       XC          
 Mg      2           
 ---------------------------------------------------------
 Initial plane wave basis and FFT box
 ---------------------------------------------------------
 DONE(0.263458   SEC) : INIT BASIS
 DONE(0.263486   SEC) : INIT PHI
 DONE(0.580341   SEC) : LOCAL POTENTIAL
 DONE(0.580405   SEC) : NON-LOCAL POTENTIAL
 START CHARGE      : atomic
 DONE(1.08792    SEC) : INIT POTENTIAL
 DONE(1.08843    SEC) : INIT OPTIMIZATION
Default type: double
 DONE(1.09252    SEC) : INIT KEDF
======================== Running OFDFT ========================
Iter        Etot(Ha)          Theta      PotNorm     deltaE(Ha)
0     -1.694921581258e+00   2.000e-01   1.070e-01   -1.695e+00  
1     -1.767115012777e+00   1.080e-01   1.523e-01   -7.219e-02  
2     -1.780812731118e+00   2.492e-02   3.508e-02   -1.370e-02  
3     -1.781848009060e+00   1.240e-02   3.857e-03   -1.035e-03  
4     -1.781869043662e+00   2.096e-03   3.142e-04   -2.103e-05  
5     -1.781869114272e+00   7.754e-05   7.809e-05   -7.061e-08  
6     -1.781869118670e+00   1.879e-05   3.265e-05   -4.398e-09  

  |CLASS_NAME---------|NAME---------------|TIME(Sec)-----|CALLS----|AVG------|PER%-------
                       total               34.293         21        1.6       1e+02     %
   Driver              driver_line         34.282         1         34        1e+02     %
   PW_Basis            setuptransform      0.16635        1         0.17      0.49      %
   ppcell_vl           init_vloc           0.31664        1         0.32      0.92      %
   Charge              atomic_rho          0.35297        1         0.35      1         %
   PW_Basis            recip2real          7.6179         2387      0.0032    22        %
   PW_Basis            gathers_scatterp    1.452          2387      0.00061   4.2       %
   Potential           init_pot            0.14916        1         0.15      0.43      %
   Potential           update_from_charge  20.188         184       0.11      59        %
   Potential           cal_v_eff           20.181         184       0.11      59        %
   H_Hartree_pw        v_hartree           1.755          184       0.0095    5.1       %
   PW_Basis            real2recip          7.0754         2387      0.003     21        %
   PW_Basis            gatherp_scatters    0.93953        2387      0.00039   2.7       %
   PotXC               cal_v_eff           18.306         184       0.099     53        %
   XC_Functional       v_xc                16.658         92        0.18      49        %
   XC_Functional       v_xc_libxc          18.077         184       0.098     53        %
   ESolver_OF          Run                 33.199         1         33        97        %
   KEDF_LKT            LKT_potential       10.686         183       0.058     31        %
   KEDF_vW             vw_potential        1.4837         183       0.0081    4.3       %
 ----------------------------------------------------------------------------------------

 START  Time  : Tue May  2 12:50:04 2023
 FINISH Time  : Tue May  2 12:50:38 2023
 TOTAL  Time  : 34
 SEE INFORMATION IN : OUT.blpstest/
