 *********************************************************
 *                                                       *
 *                  WELCOME TO ABACUS v3.0               *
 *                                                       *
 *            'Atomic-orbital Based Ab-initio            *
 *                  Computation at UStc'                 *
 *                                                       *
 *          Website: http://abacus.ustc.edu.cn/          *
 *                                                       *
 *********************************************************
 Mon Jul 24 14:53:07 2023
 MAKE THE DIR         : OUT.blpstest/
Notice: symbol 'Ga_locpsp' is not an element symbol!!!! set the covalent radius to be 0.
Notice: symbol 'Sb_locpsp' is not an element symbol!!!! set the covalent radius to be 0.
 UNIFORM GRID DIM     : 45 * 45 * 45
 UNIFORM GRID DIM(BIG): 45 * 45 * 45
func,idXC_GGA_X_PBE 101
func,idXC_GGA_C_PBE 130
 DONE(0.172931   SEC) : SETUP UNITCELL
 DONE(0.204536   SEC) : SYMMETRY
 DONE(0.375909   SEC) : INIT K-POINTS
 ---------------------------------------------------------
 Self-consistent calculations for electrons
 ---------------------------------------------------------
 SPIN    KPOINTS         PROCESSORS  
 1       256             1           
 ---------------------------------------------------------
 Use plane wave basis
 ---------------------------------------------------------
 ELEMENT NATOM       XC          
 Ga      1           
 Sb      1           
 ---------------------------------------------------------
 Initial plane wave basis and FFT box
 ---------------------------------------------------------
 DONE(0.499253   SEC) : INIT PLANEWAVE
 MEMORY FOR PSI (MB)  : 112.008
 DONE(0.550367   SEC) : LOCAL POTENTIAL
 DONE(0.550407   SEC) : NON-LOCAL POTENTIAL
 DONE(0.550472   SEC) : INIT BASIS
 START CHARGE      : atomic
 DONE(0.682021   SEC) : INIT SCF
 ITER   ETOT(eV)       EDIFF(eV)      DRHO       TIME(s)    
 CG1    -2.052517e+02  0.000000e+00   1.334e+00  8.096e+01  
 CG2    -2.076160e+02  -2.364386e+00  7.868e-02  3.440e+01  
 CG3    -2.078554e+02  -2.393210e-01  1.910e-02  4.559e+01  
 CG4    -2.079126e+02  -5.719564e-02  1.765e-04  1.276e+02  
 CG5    -2.079144e+02  -1.846796e-03  3.773e-05  1.934e+02  
 CG6    -2.079145e+02  -1.221419e-04  4.070e-06  1.339e+02  
 CG7    -2.079145e+02  -1.210267e-05  7.263e-09  6.425e+01  
 CG8    -2.079145e+02  -3.249975e-07  1.012e-09  4.913e+01  
 CG9    -2.079145e+02  -3.694626e-09  4.167e-11  2.552e+01  

  |CLASS_NAME---------|NAME---------------|TIME(Sec)-----|CALLS----|AVG------|PER%-------
                       total               755.39         17        44        1e+02     %
   Driver              driver_line         755.38         1         7.6e+02   1e+02     %
   PW_Basis            setuptransform      0.14946        1         0.15      0.02      %
   ESolver_KS_PW       Run                 754.83         1         7.5e+02   1e+02     %
   PW_Basis            recip2real          0.3059         62        0.0049    0.04      %
   Potential           update_from_charge  1.5231         10        0.15      0.2       %
   Potential           cal_v_eff           1.5207         10        0.15      0.2       %
   H_Hartree_pw        v_hartree           0.12684        10        0.013     0.017     %
   PW_Basis            real2recip          0.50462        98        0.0051    0.067     %
   PotXC               cal_v_eff           1.3851         10        0.14      0.18      %
   XC_Functional       v_xc                409.61         5         82        54        %
   XC_Functional       v_xc_libxc          1.3756         10        0.14      0.18      %
   HSolverPW           solve               752.83         9         84        1e+02     %
   DiagoIterAssist     diagH_subspace      152.71         2304      0.066     20        %
   OperatorPW          hPsi                687.32         82660     0.0083    91        %
   Operator            EkineticPW          1.7865         82660     2.2e-05   0.24      %
   Operator            VeffPW              684.77         82660     0.0083    91        %
   PW_Basis_K          recip2real          364.47         110308    0.0033    48        %
   PW_Basis_K          gathers_scatterp    37.815         110308    0.00034   5         %
   PW_Basis_K          real2recip          300.02         101092    0.003     40        %
   PW_Basis_K          gatherp_scatters    9.3504         101092    9.2e-05   1.2       %
   Operator            NonlocalPW          0.1031         82660     1.2e-06   0.014     %
   DiagoIterAssist     LAPACK_subspace     0.30306        2304      0.00013   0.04      %
   DiagoCG             diag_once           557.67         2304      0.24      74        %
   ElecStatePW         psiToRho            40.912         9         4.5       5.4       %
   Charge              mix_rho             0.20108        8         0.025     0.027     %
 ----------------------------------------------------------------------------------------

 START  Time  : Mon Jul 24 14:53:07 2023
 FINISH Time  : Mon Jul 24 15:05:42 2023
 TOTAL  Time  : 7.6e+02
 SEE INFORMATION IN : OUT.blpstest/
