                                                                                     
                             WELCOME TO ABACUS v3.0                                  
                                                                                     
               'Atomic-orbital Based Ab-initio Computation at UStc'                  
                                                                                     
                     Website: http://abacus.ustc.edu.cn/                             
                                                                                     
    Version: Parallel, in development
    Processor Number is 1
    Start Time is Wed Dec 28 12:38:33 2022
                                                                                     
 ------------------------------------------------------------------------------------

 READING GENERAL INFORMATION
                           global_out_dir = OUT.blpstest/
                           global_in_card = INPUT
                               pseudo_dir = 
                              orbital_dir = 
                                    DRANK = 1
                                    DSIZE = 1
                                   DCOLOR = 1
                                    GRANK = 1
                                    GSIZE = 1
 The esolver type has been set to : ksdft_pw




 >>>>>>>>>>>>>>>>>>>>>>>>>>>>>>>>>>>>>>>>>>>>>>>>>>>>>>>>>>>>>>>>>>>>>>
 |                                                                    |
 | Reading atom information in unitcell:                              |
 | From the input file and the structure file we know the number of   |
 | different elments in this unitcell, then we list the detail        |
 | information for each element, especially the zeta and polar atomic |
 | orbital number for each element. The total atom number is counted. |
 | We calculate the nearest atom distance for each atom and show the  |
 | Cartesian and Direct coordinates for each atom. We list the file   |
 | address for atomic orbitals. The volume and the lattice vectors    |
 | in real and reciprocal space is also shown.                        |
 |                                                                    |
 <<<<<<<<<<<<<<<<<<<<<<<<<<<<<<<<<<<<<<<<<<<<<<<<<<<<<<<<<<<<<<<<<<<<<<




 READING UNITCELL INFORMATION
                                    ntype = 1
                 atom label for species 1 = Mg
                  lattice constant (Bohr) = 5.29385
              lattice constant (Angstrom) = 2.80138

 READING ATOM TYPE 1
                               atom label = Mg
                      L=0, number of zeta = 1
                      L=1, number of zeta = 1
                      L=2, number of zeta = 1
             number of atom for this type = 2
                      start magnetization = FALSE
                      start magnetization = FALSE

                        TOTAL ATOM NUMBER = 2

 DIRECT COORDINATES
         atom                   x                   y                   z                 mag                  vx                  vy                  vz
     taud_Mg1                   0                   0                   0                   0                   0                   0                   0
     taud_Mg2            0.666667            0.333333                 0.5                   0                   0                   0                   0


                          Volume (Bohr^3) = 210.124
                             Volume (A^3) = 31.1371

 Lattice vectors: (Cartesian coordinate: in unit of a_0)
                   +1                  +0                  +0
                 -0.5           +0.866025                  +0
                   +0                  +0            +1.63542
 Reciprocal vectors: (Cartesian coordinate: in unit of 2 pi/a_0)
                   +1            +0.57735                  -0
                   -0             +1.1547                  -0
                   +0                  -0           +0.611463




 >>>>>>>>>>>>>>>>>>>>>>>>>>>>>>>>>>>>>>>>>>>>>>>>>>>>>>>>>>>>>>>>>>>>>>
 |                                                                    |
 | Reading pseudopotentials files:                                    |
 | The pseudopotential file is in UPF format. The 'NC' indicates that |
 | the type of pseudopotential is 'norm conserving'. Functional of    |
 | exchange and correlation is decided by 4 given parameters in UPF   |
 | file.  We also read in the 'core correction' if there exists.      |
 | Also we can read the valence electrons number and the maximal      |
 | angular momentum used in this pseudopotential. We also read in the |
 | trail wave function, trail atomic density and local-pseudopotential|
 | on logrithmic grid. The non-local pseudopotential projector is also|
 | read in if there is any.                                           |
 |                                                                    |
 <<<<<<<<<<<<<<<<<<<<<<<<<<<<<<<<<<<<<<<<<<<<<<<<<<<<<<<<<<<<<<<<<<<<<<




                PAO radial cut off (Bohr) = 16

 Read in pseudopotential file is mg.gga.psp
                     pseudopotential type = 
          exchange-correlation functional = XC_GGA_X_PBE+XC_GGA_C_PBE
                 nonlocal core correction = 0
                        valence electrons = 2
                                     lmax = 0
                           number of zeta = 0
                     number of projectors = 0
Notice: symbol 'mg_locpsp' is not an element symbol!!!! set the covalent radius to be 0.
     initial pseudo atomic orbital number = 0
                                   NLOCAL = 18




 >>>>>>>>>>>>>>>>>>>>>>>>>>>>>>>>>>>>>>>>>>>>>>>>>>>>>>>>>>>>>>>>>>>>>>
 |                                                                    |
 | Setup plane waves of charge/potential:                             |
 | Use the energy cutoff and the lattice vectors to generate the      |
 | dimensions of FFT grid. The number of FFT grid on each processor   |
 | is 'nrxx'. The number of plane wave basis in reciprocal space is   |
 | different for charege/potential and wave functions. We also set    |
 | the 'sticks' for the parallel of FFT. The number of plane waves    |
 | is 'npw' in each processor.                                        |
 <<<<<<<<<<<<<<<<<<<<<<<<<<<<<<<<<<<<<<<<<<<<<<<<<<<<<<<<<<<<<<<<<<<<<<





 SETUP THE PLANE WAVE BASIS
 energy cutoff for charge/potential (unit:Ry) = 240
          [fft grid for charge/potential] = 27, 27, 45
                      [fft grid division] = 1, 1, 1
      [big fft grid for charge/potential] = 27, 27, 45
                                     nbxx = 32805
                                     nrxx = 32805

 SETUP PLANE WAVES FOR CHARGE/POTENTIAL
                    number of plane waves = 13129
                         number of sticks = 463

 PARALLEL PW FOR CHARGE/POTENTIAL
     PROC   COLUMNS(POT)             PW
        1            463          13129
 --------------- sum -------------------
        1            463          13129
                            number of |g| = 701
                                  max |g| = 170.218
                                  min |g| = 0

 SETUP THE ELECTRONS NUMBER
            electron number of element Mg = 2
      total electron number of element Mg = 4
            AUTOSET number of electrons:  = 4
 DONE : SETUP UNITCELL Time : 0.132879 (SEC)





 >>>>>>>>>>>>>>>>>>>>>>>>>>>>>>>>>>>>>>>>>>>>>>>>>>>>>>>>>>>>>>>>>>>>>>
 |                                                                    |
 | Doing symmetry analysis:                                           |
 | We calculate the norm of 3 vectors and the angles between them,    |
 | the type of Bravais lattice is given. We can judge if the unticell |
 | is a primitive cell. Finally we give the point group operation for |
 | this unitcell. We we use the point group operations to do symmetry |
 | analysis on given k-point mesh and the charge density.             |
 |                                                                    |
 <<<<<<<<<<<<<<<<<<<<<<<<<<<<<<<<<<<<<<<<<<<<<<<<<<<<<<<<<<<<<<<<<<<<<<




 LATTICE VECTORS: (CARTESIAN COORDINATE: IN UNIT OF A0)
                   +1                  +0                  +0
                 -0.5           +0.866025                  +0
                   +0                  +0            +1.63542
                       right hand lattice = 1
                                   NORM_A = 1
                                   NORM_B = 1
                                   NORM_C = 1.63542
                           ALPHA (DEGREE) = 120
                           BETA  (DEGREE) = 90
                           GAMMA (DEGREE) = 90
                             BRAVAIS TYPE = 4
                     BRAVAIS LATTICE NAME = 04. Hexagonal cell
                                    IBRAV = 4
                                  BRAVAIS = HEXAGONAL CELL
                       LATTICE CONSTANT A = 1
                                C/A RATIO = 1.63542
                                    ibrav = 4
                        ROTATION MATRICES = 24
              PURE POINT GROUP OPERATIONS = 24
                   SPACE GROUP OPERATIONS = 24
                                       C2 = 7
                                       C3 = 2
                                       C4 = 0
                                       C6 = 2
                                       S1 = 7
                                       S3 = 2
                                       S4 = 0
                                       S6 = 2
                              POINT GROUP = D_6h
Warning : If the optimal symmetric configuration is not the input configuration, 
you have to manually change configurations, ABACUS would only calculate the input structure.
 DONE : SYMMETRY Time : 0.186892 (SEC)





 >>>>>>>>>>>>>>>>>>>>>>>>>>>>>>>>>>>>>>>>>>>>>>>>>>>>>>>>>>>>>>>>>>>>>>
 |                                                                    |
 | Setup K-points                                                     |
 | We setup the k-points according to input parameters.               |
 | The reduced k-points are set according to symmetry operations.     |
 | We treat the spin as another set of k-points.                      |
 |                                                                    |
 <<<<<<<<<<<<<<<<<<<<<<<<<<<<<<<<<<<<<<<<<<<<<<<<<<<<<<<<<<<<<<<<<<<<<<





 SETUP K-POINTS
                                    nspin = 1
                   Input type of k points = Monkhorst-Pack(Gamma)
                                   nkstot = 1728
                               nkstot_ibz = 133
      IBZ             DirectX             DirectY             DirectZ              Weight    ibz2bz
        1                   0                   0                   0         0.000578704         0
        2            0.916667           0.0833333                   0          0.00347222         1
        3            0.833333            0.166667                   0          0.00347222         2
        4                0.75                0.25                   0          0.00347222         3
        5            0.666667            0.333333                   0          0.00347222         4
        6            0.583333            0.416667                   0          0.00347222         5
        7                 0.5                 0.5                   0          0.00173611         6
        8            0.916667            0.916667                   0          0.00347222        13
        9            0.916667            0.833333                   0          0.00694444        14
       10            0.916667                0.75                   0          0.00694444        15
       11            0.916667            0.666667                   0          0.00694444        16
       12            0.916667            0.583333                   0          0.00694444        17
       13            0.833333            0.833333                   0          0.00347222        26
       14            0.833333                0.75                   0          0.00694444        27
       15            0.833333            0.666667                   0          0.00694444        28
       16            0.833333            0.583333                   0          0.00347222        29
       17                0.75                0.75                   0          0.00347222        39
       18                0.75            0.666667                   0          0.00694444        40
       19            0.666667            0.666667                   0          0.00115741        52
       20                   0                   0            0.916667          0.00115741       144
       21            0.916667           0.0833333            0.916667          0.00694444       145
       22            0.833333            0.166667            0.916667          0.00694444       146
       23                0.75                0.25            0.916667          0.00694444       147
       24            0.666667            0.333333            0.916667          0.00694444       148
       25            0.583333            0.416667            0.916667          0.00694444       149
       26                 0.5                 0.5            0.916667          0.00347222       150
       27            0.916667            0.916667            0.916667          0.00694444       157
       28            0.916667            0.833333            0.916667           0.0138889       158
       29            0.916667                0.75            0.916667           0.0138889       159
       30            0.916667            0.666667            0.916667           0.0138889       160
       31            0.916667            0.583333            0.916667           0.0138889       161
       32            0.833333            0.833333            0.916667          0.00694444       170
       33            0.833333                0.75            0.916667           0.0138889       171
       34            0.833333            0.666667            0.916667           0.0138889       172
       35            0.833333            0.583333            0.916667          0.00694444       173
       36                0.75                0.75            0.916667          0.00694444       183
       37                0.75            0.666667            0.916667           0.0138889       184
       38            0.666667            0.666667            0.916667          0.00231481       196
       39                   0                   0            0.833333          0.00115741       288
       40            0.916667           0.0833333            0.833333          0.00694444       289
       41            0.833333            0.166667            0.833333          0.00694444       290
       42                0.75                0.25            0.833333          0.00694444       291
       43            0.666667            0.333333            0.833333          0.00694444       292
       44            0.583333            0.416667            0.833333          0.00694444       293
       45                 0.5                 0.5            0.833333          0.00347222       294
       46            0.916667            0.916667            0.833333          0.00694444       301
       47            0.916667            0.833333            0.833333           0.0138889       302
       48            0.916667                0.75            0.833333           0.0138889       303
       49            0.916667            0.666667            0.833333           0.0138889       304
       50            0.916667            0.583333            0.833333           0.0138889       305
       51            0.833333            0.833333            0.833333          0.00694444       314
       52            0.833333                0.75            0.833333           0.0138889       315
       53            0.833333            0.666667            0.833333           0.0138889       316
       54            0.833333            0.583333            0.833333          0.00694444       317
       55                0.75                0.75            0.833333          0.00694444       327
       56                0.75            0.666667            0.833333           0.0138889       328
       57            0.666667            0.666667            0.833333          0.00231481       340
       58                   0                   0                0.75          0.00115741       432
       59            0.916667           0.0833333                0.75          0.00694444       433
       60            0.833333            0.166667                0.75          0.00694444       434
       61                0.75                0.25                0.75          0.00694444       435
       62            0.666667            0.333333                0.75          0.00694444       436
       63            0.583333            0.416667                0.75          0.00694444       437
       64                 0.5                 0.5                0.75          0.00347222       438
       65            0.916667            0.916667                0.75          0.00694444       445
       66            0.916667            0.833333                0.75           0.0138889       446
       67            0.916667                0.75                0.75           0.0138889       447
       68            0.916667            0.666667                0.75           0.0138889       448
       69            0.916667            0.583333                0.75           0.0138889       449
       70            0.833333            0.833333                0.75          0.00694444       458
       71            0.833333                0.75                0.75           0.0138889       459
       72            0.833333            0.666667                0.75           0.0138889       460
       73            0.833333            0.583333                0.75          0.00694444       461
       74                0.75                0.75                0.75          0.00694444       471
       75                0.75            0.666667                0.75           0.0138889       472
       76            0.666667            0.666667                0.75          0.00231481       484
       77                   0                   0            0.666667          0.00115741       576
       78            0.916667           0.0833333            0.666667          0.00694444       577
       79            0.833333            0.166667            0.666667          0.00694444       578
       80                0.75                0.25            0.666667          0.00694444       579
       81            0.666667            0.333333            0.666667          0.00694444       580
       82            0.583333            0.416667            0.666667          0.00694444       581
       83                 0.5                 0.5            0.666667          0.00347222       582
       84            0.916667            0.916667            0.666667          0.00694444       589
       85            0.916667            0.833333            0.666667           0.0138889       590
       86            0.916667                0.75            0.666667           0.0138889       591
       87            0.916667            0.666667            0.666667           0.0138889       592
       88            0.916667            0.583333            0.666667           0.0138889       593
       89            0.833333            0.833333            0.666667          0.00694444       602
       90            0.833333                0.75            0.666667           0.0138889       603
       91            0.833333            0.666667            0.666667           0.0138889       604
       92            0.833333            0.583333            0.666667          0.00694444       605
       93                0.75                0.75            0.666667          0.00694444       615
       94                0.75            0.666667            0.666667           0.0138889       616
       95            0.666667            0.666667            0.666667          0.00231481       628
       96                   0                   0            0.583333          0.00115741       720
       97            0.916667           0.0833333            0.583333          0.00694444       721
       98            0.833333            0.166667            0.583333          0.00694444       722
       99                0.75                0.25            0.583333          0.00694444       723
      100            0.666667            0.333333            0.583333          0.00694444       724
      101            0.583333            0.416667            0.583333          0.00694444       725
      102                 0.5                 0.5            0.583333          0.00347222       726
      103            0.916667            0.916667            0.583333          0.00694444       733
      104            0.916667            0.833333            0.583333           0.0138889       734
      105            0.916667                0.75            0.583333           0.0138889       735
      106            0.916667            0.666667            0.583333           0.0138889       736
      107            0.916667            0.583333            0.583333           0.0138889       737
      108            0.833333            0.833333            0.583333          0.00694444       746
      109            0.833333                0.75            0.583333           0.0138889       747
      110            0.833333            0.666667            0.583333           0.0138889       748
      111            0.833333            0.583333            0.583333          0.00694444       749
      112                0.75                0.75            0.583333          0.00694444       759
      113                0.75            0.666667            0.583333           0.0138889       760
      114            0.666667            0.666667            0.583333          0.00231481       772
      115                   0                   0                 0.5         0.000578704       864
      116            0.916667           0.0833333                 0.5          0.00347222       865
      117            0.833333            0.166667                 0.5          0.00347222       866
      118                0.75                0.25                 0.5          0.00347222       867
      119            0.666667            0.333333                 0.5          0.00347222       868
      120            0.583333            0.416667                 0.5          0.00347222       869
      121                 0.5                 0.5                 0.5          0.00173611       870
      122            0.916667            0.916667                 0.5          0.00347222       877
      123            0.916667            0.833333                 0.5          0.00694444       878
      124            0.916667                0.75                 0.5          0.00694444       879
      125            0.916667            0.666667                 0.5          0.00694444       880
      126            0.916667            0.583333                 0.5          0.00694444       881
      127            0.833333            0.833333                 0.5          0.00347222       890
      128            0.833333                0.75                 0.5          0.00694444       891
      129            0.833333            0.666667                 0.5          0.00694444       892
      130            0.833333            0.583333                 0.5          0.00347222       893
      131                0.75                0.75                 0.5          0.00347222       903
      132                0.75            0.666667                 0.5          0.00694444       904
      133            0.666667            0.666667                 0.5          0.00115741       916
                               nkstot now = 133

  KPOINTS            DIRECT_X            DIRECT_Y            DIRECT_Z              WEIGHT
        1                   0                   0                   0         0.000578704
        2            0.916667           0.0833333                   0          0.00347222
        3            0.833333            0.166667                   0          0.00347222
        4                0.75                0.25                   0          0.00347222
        5            0.666667            0.333333                   0          0.00347222
        6            0.583333            0.416667                   0          0.00347222
        7                 0.5                 0.5                   0          0.00173611
        8            0.916667            0.916667                   0          0.00347222
        9            0.916667            0.833333                   0          0.00694444
       10            0.916667                0.75                   0          0.00694444
       11            0.916667            0.666667                   0          0.00694444
       12            0.916667            0.583333                   0          0.00694444
       13            0.833333            0.833333                   0          0.00347222
       14            0.833333                0.75                   0          0.00694444
       15            0.833333            0.666667                   0          0.00694444
       16            0.833333            0.583333                   0          0.00347222
       17                0.75                0.75                   0          0.00347222
       18                0.75            0.666667                   0          0.00694444
       19            0.666667            0.666667                   0          0.00115741
       20                   0                   0            0.916667          0.00115741
       21            0.916667           0.0833333            0.916667          0.00694444
       22            0.833333            0.166667            0.916667          0.00694444
       23                0.75                0.25            0.916667          0.00694444
       24            0.666667            0.333333            0.916667          0.00694444
       25            0.583333            0.416667            0.916667          0.00694444
       26                 0.5                 0.5            0.916667          0.00347222
       27            0.916667            0.916667            0.916667          0.00694444
       28            0.916667            0.833333            0.916667           0.0138889
       29            0.916667                0.75            0.916667           0.0138889
       30            0.916667            0.666667            0.916667           0.0138889
       31            0.916667            0.583333            0.916667           0.0138889
       32            0.833333            0.833333            0.916667          0.00694444
       33            0.833333                0.75            0.916667           0.0138889
       34            0.833333            0.666667            0.916667           0.0138889
       35            0.833333            0.583333            0.916667          0.00694444
       36                0.75                0.75            0.916667          0.00694444
       37                0.75            0.666667            0.916667           0.0138889
       38            0.666667            0.666667            0.916667          0.00231481
       39                   0                   0            0.833333          0.00115741
       40            0.916667           0.0833333            0.833333          0.00694444
       41            0.833333            0.166667            0.833333          0.00694444
       42                0.75                0.25            0.833333          0.00694444
       43            0.666667            0.333333            0.833333          0.00694444
       44            0.583333            0.416667            0.833333          0.00694444
       45                 0.5                 0.5            0.833333          0.00347222
       46            0.916667            0.916667            0.833333          0.00694444
       47            0.916667            0.833333            0.833333           0.0138889
       48            0.916667                0.75            0.833333           0.0138889
       49            0.916667            0.666667            0.833333           0.0138889
       50            0.916667            0.583333            0.833333           0.0138889
       51            0.833333            0.833333            0.833333          0.00694444
       52            0.833333                0.75            0.833333           0.0138889
       53            0.833333            0.666667            0.833333           0.0138889
       54            0.833333            0.583333            0.833333          0.00694444
       55                0.75                0.75            0.833333          0.00694444
       56                0.75            0.666667            0.833333           0.0138889
       57            0.666667            0.666667            0.833333          0.00231481
       58                   0                   0                0.75          0.00115741
       59            0.916667           0.0833333                0.75          0.00694444
       60            0.833333            0.166667                0.75          0.00694444
       61                0.75                0.25                0.75          0.00694444
       62            0.666667            0.333333                0.75          0.00694444
       63            0.583333            0.416667                0.75          0.00694444
       64                 0.5                 0.5                0.75          0.00347222
       65            0.916667            0.916667                0.75          0.00694444
       66            0.916667            0.833333                0.75           0.0138889
       67            0.916667                0.75                0.75           0.0138889
       68            0.916667            0.666667                0.75           0.0138889
       69            0.916667            0.583333                0.75           0.0138889
       70            0.833333            0.833333                0.75          0.00694444
       71            0.833333                0.75                0.75           0.0138889
       72            0.833333            0.666667                0.75           0.0138889
       73            0.833333            0.583333                0.75          0.00694444
       74                0.75                0.75                0.75          0.00694444
       75                0.75            0.666667                0.75           0.0138889
       76            0.666667            0.666667                0.75          0.00231481
       77                   0                   0            0.666667          0.00115741
       78            0.916667           0.0833333            0.666667          0.00694444
       79            0.833333            0.166667            0.666667          0.00694444
       80                0.75                0.25            0.666667          0.00694444
       81            0.666667            0.333333            0.666667          0.00694444
       82            0.583333            0.416667            0.666667          0.00694444
       83                 0.5                 0.5            0.666667          0.00347222
       84            0.916667            0.916667            0.666667          0.00694444
       85            0.916667            0.833333            0.666667           0.0138889
       86            0.916667                0.75            0.666667           0.0138889
       87            0.916667            0.666667            0.666667           0.0138889
       88            0.916667            0.583333            0.666667           0.0138889
       89            0.833333            0.833333            0.666667          0.00694444
       90            0.833333                0.75            0.666667           0.0138889
       91            0.833333            0.666667            0.666667           0.0138889
       92            0.833333            0.583333            0.666667          0.00694444
       93                0.75                0.75            0.666667          0.00694444
       94                0.75            0.666667            0.666667           0.0138889
       95            0.666667            0.666667            0.666667          0.00231481
       96                   0                   0            0.583333          0.00115741
       97            0.916667           0.0833333            0.583333          0.00694444
       98            0.833333            0.166667            0.583333          0.00694444
       99                0.75                0.25            0.583333          0.00694444
      100            0.666667            0.333333            0.583333          0.00694444
      101            0.583333            0.416667            0.583333          0.00694444
      102                 0.5                 0.5            0.583333          0.00347222
      103            0.916667            0.916667            0.583333          0.00694444
      104            0.916667            0.833333            0.583333           0.0138889
      105            0.916667                0.75            0.583333           0.0138889
      106            0.916667            0.666667            0.583333           0.0138889
      107            0.916667            0.583333            0.583333           0.0138889
      108            0.833333            0.833333            0.583333          0.00694444
      109            0.833333                0.75            0.583333           0.0138889
      110            0.833333            0.666667            0.583333           0.0138889
      111            0.833333            0.583333            0.583333          0.00694444
      112                0.75                0.75            0.583333          0.00694444
      113                0.75            0.666667            0.583333           0.0138889
      114            0.666667            0.666667            0.583333          0.00231481
      115                   0                   0                 0.5         0.000578704
      116            0.916667           0.0833333                 0.5          0.00347222
      117            0.833333            0.166667                 0.5          0.00347222
      118                0.75                0.25                 0.5          0.00347222
      119            0.666667            0.333333                 0.5          0.00347222
      120            0.583333            0.416667                 0.5          0.00347222
      121                 0.5                 0.5                 0.5          0.00173611
      122            0.916667            0.916667                 0.5          0.00347222
      123            0.916667            0.833333                 0.5          0.00694444
      124            0.916667                0.75                 0.5          0.00694444
      125            0.916667            0.666667                 0.5          0.00694444
      126            0.916667            0.583333                 0.5          0.00694444
      127            0.833333            0.833333                 0.5          0.00347222
      128            0.833333                0.75                 0.5          0.00694444
      129            0.833333            0.666667                 0.5          0.00694444
      130            0.833333            0.583333                 0.5          0.00347222
      131                0.75                0.75                 0.5          0.00347222
      132                0.75            0.666667                 0.5          0.00694444
      133            0.666667            0.666667                 0.5          0.00115741

           k-point number in this process = 133
       minimum distributed K point number = 133

  KPOINTS         CARTESIAN_X         CARTESIAN_Y         CARTESIAN_Z              WEIGHT
        1                   0                   0                   0          0.00115741
        2            0.916667            0.625463                   0          0.00694444
        3            0.833333            0.673575                   0          0.00694444
        4                0.75            0.721688                   0          0.00694444
        5            0.666667              0.7698                   0          0.00694444
        6            0.583333            0.817913                   0          0.00694444
        7                 0.5            0.866025                   0          0.00347222
        8            0.916667             1.58771                   0          0.00694444
        9            0.916667             1.49149                   0           0.0138889
       10            0.916667             1.39526                   0           0.0138889
       11            0.916667             1.29904                   0           0.0138889
       12            0.916667             1.20281                   0           0.0138889
       13            0.833333             1.44338                   0          0.00694444
       14            0.833333             1.34715                   0           0.0138889
       15            0.833333             1.25093                   0           0.0138889
       16            0.833333              1.1547                   0          0.00694444
       17                0.75             1.29904                   0          0.00694444
       18                0.75             1.20281                   0           0.0138889
       19            0.666667              1.1547                   0          0.00231481
       20                   0                   0            0.560508          0.00231481
       21            0.916667            0.625463            0.560508           0.0138889
       22            0.833333            0.673575            0.560508           0.0138889
       23                0.75            0.721688            0.560508           0.0138889
       24            0.666667              0.7698            0.560508           0.0138889
       25            0.583333            0.817913            0.560508           0.0138889
       26                 0.5            0.866025            0.560508          0.00694444
       27            0.916667             1.58771            0.560508           0.0138889
       28            0.916667             1.49149            0.560508           0.0277778
       29            0.916667             1.39526            0.560508           0.0277778
       30            0.916667             1.29904            0.560508           0.0277778
       31            0.916667             1.20281            0.560508           0.0277778
       32            0.833333             1.44338            0.560508           0.0138889
       33            0.833333             1.34715            0.560508           0.0277778
       34            0.833333             1.25093            0.560508           0.0277778
       35            0.833333              1.1547            0.560508           0.0138889
       36                0.75             1.29904            0.560508           0.0138889
       37                0.75             1.20281            0.560508           0.0277778
       38            0.666667              1.1547            0.560508          0.00462963
       39                   0                   0            0.509553          0.00231481
       40            0.916667            0.625463            0.509553           0.0138889
       41            0.833333            0.673575            0.509553           0.0138889
       42                0.75            0.721688            0.509553           0.0138889
       43            0.666667              0.7698            0.509553           0.0138889
       44            0.583333            0.817913            0.509553           0.0138889
       45                 0.5            0.866025            0.509553          0.00694444
       46            0.916667             1.58771            0.509553           0.0138889
       47            0.916667             1.49149            0.509553           0.0277778
       48            0.916667             1.39526            0.509553           0.0277778
       49            0.916667             1.29904            0.509553           0.0277778
       50            0.916667             1.20281            0.509553           0.0277778
       51            0.833333             1.44338            0.509553           0.0138889
       52            0.833333             1.34715            0.509553           0.0277778
       53            0.833333             1.25093            0.509553           0.0277778
       54            0.833333              1.1547            0.509553           0.0138889
       55                0.75             1.29904            0.509553           0.0138889
       56                0.75             1.20281            0.509553           0.0277778
       57            0.666667              1.1547            0.509553          0.00462963
       58                   0                   0            0.458597          0.00231481
       59            0.916667            0.625463            0.458597           0.0138889
       60            0.833333            0.673575            0.458597           0.0138889
       61                0.75            0.721688            0.458597           0.0138889
       62            0.666667              0.7698            0.458597           0.0138889
       63            0.583333            0.817913            0.458597           0.0138889
       64                 0.5            0.866025            0.458597          0.00694444
       65            0.916667             1.58771            0.458597           0.0138889
       66            0.916667             1.49149            0.458597           0.0277778
       67            0.916667             1.39526            0.458597           0.0277778
       68            0.916667             1.29904            0.458597           0.0277778
       69            0.916667             1.20281            0.458597           0.0277778
       70            0.833333             1.44338            0.458597           0.0138889
       71            0.833333             1.34715            0.458597           0.0277778
       72            0.833333             1.25093            0.458597           0.0277778
       73            0.833333              1.1547            0.458597           0.0138889
       74                0.75             1.29904            0.458597           0.0138889
       75                0.75             1.20281            0.458597           0.0277778
       76            0.666667              1.1547            0.458597          0.00462963
       77                   0                   0            0.407642          0.00231481
       78            0.916667            0.625463            0.407642           0.0138889
       79            0.833333            0.673575            0.407642           0.0138889
       80                0.75            0.721688            0.407642           0.0138889
       81            0.666667              0.7698            0.407642           0.0138889
       82            0.583333            0.817913            0.407642           0.0138889
       83                 0.5            0.866025            0.407642          0.00694444
       84            0.916667             1.58771            0.407642           0.0138889
       85            0.916667             1.49149            0.407642           0.0277778
       86            0.916667             1.39526            0.407642           0.0277778
       87            0.916667             1.29904            0.407642           0.0277778
       88            0.916667             1.20281            0.407642           0.0277778
       89            0.833333             1.44338            0.407642           0.0138889
       90            0.833333             1.34715            0.407642           0.0277778
       91            0.833333             1.25093            0.407642           0.0277778
       92            0.833333              1.1547            0.407642           0.0138889
       93                0.75             1.29904            0.407642           0.0138889
       94                0.75             1.20281            0.407642           0.0277778
       95            0.666667              1.1547            0.407642          0.00462963
       96                   0                   0            0.356687          0.00231481
       97            0.916667            0.625463            0.356687           0.0138889
       98            0.833333            0.673575            0.356687           0.0138889
       99                0.75            0.721688            0.356687           0.0138889
      100            0.666667              0.7698            0.356687           0.0138889
      101            0.583333            0.817913            0.356687           0.0138889
      102                 0.5            0.866025            0.356687          0.00694444
      103            0.916667             1.58771            0.356687           0.0138889
      104            0.916667             1.49149            0.356687           0.0277778
      105            0.916667             1.39526            0.356687           0.0277778
      106            0.916667             1.29904            0.356687           0.0277778
      107            0.916667             1.20281            0.356687           0.0277778
      108            0.833333             1.44338            0.356687           0.0138889
      109            0.833333             1.34715            0.356687           0.0277778
      110            0.833333             1.25093            0.356687           0.0277778
      111            0.833333              1.1547            0.356687           0.0138889
      112                0.75             1.29904            0.356687           0.0138889
      113                0.75             1.20281            0.356687           0.0277778
      114            0.666667              1.1547            0.356687          0.00462963
      115                   0                   0            0.305732          0.00115741
      116            0.916667            0.625463            0.305732          0.00694444
      117            0.833333            0.673575            0.305732          0.00694444
      118                0.75            0.721688            0.305732          0.00694444
      119            0.666667              0.7698            0.305732          0.00694444
      120            0.583333            0.817913            0.305732          0.00694444
      121                 0.5            0.866025            0.305732          0.00347222
      122            0.916667             1.58771            0.305732          0.00694444
      123            0.916667             1.49149            0.305732           0.0138889
      124            0.916667             1.39526            0.305732           0.0138889
      125            0.916667             1.29904            0.305732           0.0138889
      126            0.916667             1.20281            0.305732           0.0138889
      127            0.833333             1.44338            0.305732          0.00694444
      128            0.833333             1.34715            0.305732           0.0138889
      129            0.833333             1.25093            0.305732           0.0138889
      130            0.833333              1.1547            0.305732          0.00694444
      131                0.75             1.29904            0.305732          0.00694444
      132                0.75             1.20281            0.305732           0.0138889
      133            0.666667              1.1547            0.305732          0.00231481

  KPOINTS            DIRECT_X            DIRECT_Y            DIRECT_Z              WEIGHT
        1                   0                   0                   0          0.00115741
        2            0.916667           0.0833333                   0          0.00694444
        3            0.833333            0.166667                   0          0.00694444
        4                0.75                0.25                   0          0.00694444
        5            0.666667            0.333333                   0          0.00694444
        6            0.583333            0.416667                   0          0.00694444
        7                 0.5                 0.5                   0          0.00347222
        8            0.916667            0.916667                   0          0.00694444
        9            0.916667            0.833333                   0           0.0138889
       10            0.916667                0.75                   0           0.0138889
       11            0.916667            0.666667                   0           0.0138889
       12            0.916667            0.583333                   0           0.0138889
       13            0.833333            0.833333                   0          0.00694444
       14            0.833333                0.75                   0           0.0138889
       15            0.833333            0.666667                   0           0.0138889
       16            0.833333            0.583333                   0          0.00694444
       17                0.75                0.75                   0          0.00694444
       18                0.75            0.666667                   0           0.0138889
       19            0.666667            0.666667                   0          0.00231481
       20                   0                   0            0.916667          0.00231481
       21            0.916667           0.0833333            0.916667           0.0138889
       22            0.833333            0.166667            0.916667           0.0138889
       23                0.75                0.25            0.916667           0.0138889
       24            0.666667            0.333333            0.916667           0.0138889
       25            0.583333            0.416667            0.916667           0.0138889
       26                 0.5                 0.5            0.916667          0.00694444
       27            0.916667            0.916667            0.916667           0.0138889
       28            0.916667            0.833333            0.916667           0.0277778
       29            0.916667                0.75            0.916667           0.0277778
       30            0.916667            0.666667            0.916667           0.0277778
       31            0.916667            0.583333            0.916667           0.0277778
       32            0.833333            0.833333            0.916667           0.0138889
       33            0.833333                0.75            0.916667           0.0277778
       34            0.833333            0.666667            0.916667           0.0277778
       35            0.833333            0.583333            0.916667           0.0138889
       36                0.75                0.75            0.916667           0.0138889
       37                0.75            0.666667            0.916667           0.0277778
       38            0.666667            0.666667            0.916667          0.00462963
       39                   0                   0            0.833333          0.00231481
       40            0.916667           0.0833333            0.833333           0.0138889
       41            0.833333            0.166667            0.833333           0.0138889
       42                0.75                0.25            0.833333           0.0138889
       43            0.666667            0.333333            0.833333           0.0138889
       44            0.583333            0.416667            0.833333           0.0138889
       45                 0.5                 0.5            0.833333          0.00694444
       46            0.916667            0.916667            0.833333           0.0138889
       47            0.916667            0.833333            0.833333           0.0277778
       48            0.916667                0.75            0.833333           0.0277778
       49            0.916667            0.666667            0.833333           0.0277778
       50            0.916667            0.583333            0.833333           0.0277778
       51            0.833333            0.833333            0.833333           0.0138889
       52            0.833333                0.75            0.833333           0.0277778
       53            0.833333            0.666667            0.833333           0.0277778
       54            0.833333            0.583333            0.833333           0.0138889
       55                0.75                0.75            0.833333           0.0138889
       56                0.75            0.666667            0.833333           0.0277778
       57            0.666667            0.666667            0.833333          0.00462963
       58                   0                   0                0.75          0.00231481
       59            0.916667           0.0833333                0.75           0.0138889
       60            0.833333            0.166667                0.75           0.0138889
       61                0.75                0.25                0.75           0.0138889
       62            0.666667            0.333333                0.75           0.0138889
       63            0.583333            0.416667                0.75           0.0138889
       64                 0.5                 0.5                0.75          0.00694444
       65            0.916667            0.916667                0.75           0.0138889
       66            0.916667            0.833333                0.75           0.0277778
       67            0.916667                0.75                0.75           0.0277778
       68            0.916667            0.666667                0.75           0.0277778
       69            0.916667            0.583333                0.75           0.0277778
       70            0.833333            0.833333                0.75           0.0138889
       71            0.833333                0.75                0.75           0.0277778
       72            0.833333            0.666667                0.75           0.0277778
       73            0.833333            0.583333                0.75           0.0138889
       74                0.75                0.75                0.75           0.0138889
       75                0.75            0.666667                0.75           0.0277778
       76            0.666667            0.666667                0.75          0.00462963
       77                   0                   0            0.666667          0.00231481
       78            0.916667           0.0833333            0.666667           0.0138889
       79            0.833333            0.166667            0.666667           0.0138889
       80                0.75                0.25            0.666667           0.0138889
       81            0.666667            0.333333            0.666667           0.0138889
       82            0.583333            0.416667            0.666667           0.0138889
       83                 0.5                 0.5            0.666667          0.00694444
       84            0.916667            0.916667            0.666667           0.0138889
       85            0.916667            0.833333            0.666667           0.0277778
       86            0.916667                0.75            0.666667           0.0277778
       87            0.916667            0.666667            0.666667           0.0277778
       88            0.916667            0.583333            0.666667           0.0277778
       89            0.833333            0.833333            0.666667           0.0138889
       90            0.833333                0.75            0.666667           0.0277778
       91            0.833333            0.666667            0.666667           0.0277778
       92            0.833333            0.583333            0.666667           0.0138889
       93                0.75                0.75            0.666667           0.0138889
       94                0.75            0.666667            0.666667           0.0277778
       95            0.666667            0.666667            0.666667          0.00462963
       96                   0                   0            0.583333          0.00231481
       97            0.916667           0.0833333            0.583333           0.0138889
       98            0.833333            0.166667            0.583333           0.0138889
       99                0.75                0.25            0.583333           0.0138889
      100            0.666667            0.333333            0.583333           0.0138889
      101            0.583333            0.416667            0.583333           0.0138889
      102                 0.5                 0.5            0.583333          0.00694444
      103            0.916667            0.916667            0.583333           0.0138889
      104            0.916667            0.833333            0.583333           0.0277778
      105            0.916667                0.75            0.583333           0.0277778
      106            0.916667            0.666667            0.583333           0.0277778
      107            0.916667            0.583333            0.583333           0.0277778
      108            0.833333            0.833333            0.583333           0.0138889
      109            0.833333                0.75            0.583333           0.0277778
      110            0.833333            0.666667            0.583333           0.0277778
      111            0.833333            0.583333            0.583333           0.0138889
      112                0.75                0.75            0.583333           0.0138889
      113                0.75            0.666667            0.583333           0.0277778
      114            0.666667            0.666667            0.583333          0.00462963
      115                   0                   0                 0.5          0.00115741
      116            0.916667           0.0833333                 0.5          0.00694444
      117            0.833333            0.166667                 0.5          0.00694444
      118                0.75                0.25                 0.5          0.00694444
      119            0.666667            0.333333                 0.5          0.00694444
      120            0.583333            0.416667                 0.5          0.00694444
      121                 0.5                 0.5                 0.5          0.00347222
      122            0.916667            0.916667                 0.5          0.00694444
      123            0.916667            0.833333                 0.5           0.0138889
      124            0.916667                0.75                 0.5           0.0138889
      125            0.916667            0.666667                 0.5           0.0138889
      126            0.916667            0.583333                 0.5           0.0138889
      127            0.833333            0.833333                 0.5          0.00694444
      128            0.833333                0.75                 0.5           0.0138889
      129            0.833333            0.666667                 0.5           0.0138889
      130            0.833333            0.583333                 0.5          0.00694444
      131                0.75                0.75                 0.5          0.00694444
      132                0.75            0.666667                 0.5           0.0138889
      133            0.666667            0.666667                 0.5          0.00231481
 DONE : INIT K-POINTS Time : 0.213418 (SEC)





 >>>>>>>>>>>>>>>>>>>>>>>>>>>>>>>>>>>>>>>>>>>>>>>>>>>>>>>>>>>>>>>>>>>>>>
 |                                                                    |
 | Setup plane waves of wave functions:                               |
 | Use the energy cutoff and the lattice vectors to generate the      |
 | dimensions of FFT grid. The number of FFT grid on each processor   |
 | is 'nrxx'. The number of plane wave basis in reciprocal space is   |
 | different for charege/potential and wave functions. We also set    |
 | the 'sticks' for the parallel of FFT. The number of plane wave of  |
 | each k-point is 'npwk[ik]' in each processor                       |
 <<<<<<<<<<<<<<<<<<<<<<<<<<<<<<<<<<<<<<<<<<<<<<<<<<<<<<<<<<<<<<<<<<<<<<





 SETUP PLANE WAVES FOR WAVE FUNCTIONS
     energy cutoff for wavefunc (unit:Ry) = 60
            [fft grid for wave functions] = 27, 27, 45
                    number of plane waves = 3597
                         number of sticks = 199

 PARALLEL PW FOR WAVE FUNCTIONS
     PROC   COLUMNS(POT)             PW
        1            199           3597
 --------------- sum -------------------
        1            199           3597
 DONE : INIT PLANEWAVE Time : 0.283064 (SEC)

                           occupied bands = 2
                                   NBANDS = 6
                                     npwx = 1686

 SETUP NONLOCAL PSEUDOPOTENTIALS IN PLANE WAVE BASIS
 Mg non-local projectors:
      TOTAL NUMBER OF NONLOCAL PROJECTORS = 0

 nhm = 0, not allocate some matrix. DONE : LOCAL POTENTIAL Time : 0.344978 (SEC)


 Init Non-Local PseudoPotential table : 
 Init Non-Local-Pseudopotential done.
 DONE : NON-LOCAL POTENTIAL Time : 0.345033 (SEC)


 Make real space PAO into reciprocal space.
       max mesh points in Pseudopotential = 1601
     dq(describe PAO in reciprocal space) = 0.01
                                    max q = 934

 number of pseudo atomic orbitals for Mg is 0
 DONE : INIT BASIS Time : 0.345099 (SEC)

Successful completion of Potential's registration : local
Successful completion of Potential's registration : hartree
Successful completion of Potential's registration : xc
                                 init_chg = atomic
 DONE : INIT SCF Time : 0.453035 (SEC)


 PW ALGORITHM --------------- ION=   1  ELEC=   1--------------------------------
Average iterative diagonalization steps: 7.61654 ; where current threshold is: 0.01 . 

 Density error is 0.114160158903
                          Error Threshold = 0.01

       Energy                       Rydberg                            eV
   E_KohnSham                -3.45973113526                -47.0720569876
     E_Harris                -3.35701097753                -45.6744775429
      E_Fermi               +0.513946886685                +6.99260612828

 PW ALGORITHM --------------- ION=   1  ELEC=   2--------------------------------
Average iterative diagonalization steps: 2.14285714286 ; where current threshold is: 0.00285400397258 . 

 Density error is 0.0103381893768
                          Error Threshold = 0.00285400397258

       Energy                       Rydberg                            eV
   E_KohnSham                 -3.4871755501                -47.4454574076
     E_Harris                -3.46832136064                -47.1889329998
      E_Fermi                +0.48188358515                 +6.5563625307

 PW ALGORITHM --------------- ION=   1  ELEC=   3--------------------------------
Average iterative diagonalization steps: 3.17794486216 ; where current threshold is: 0.000258454734419 . 

 Density error is 7.45672217487e-05
                          Error Threshold = 0.000258454734419

       Energy                       Rydberg                            eV
   E_KohnSham                -3.48788614569                -47.4551255566
     E_Harris                -3.48792012111                -47.4555878159
      E_Fermi               +0.481329835992                 +6.5488283869

 PW ALGORITHM --------------- ION=   1  ELEC=   4--------------------------------
Average iterative diagonalization steps: 4.87719298246 ; where current threshold is: 1.86418054372e-06 . 

 Density error is 1.56812770554e-05
                          Error Threshold = 1.86418054372e-06

       Energy                       Rydberg                            eV
   E_KohnSham                -3.48797680054                -47.4563589791
     E_Harris                -3.48798122489                -47.4564191755
      E_Fermi               +0.481298393813                 +6.5484005941

 PW ALGORITHM --------------- ION=   1  ELEC=   5--------------------------------
Average iterative diagonalization steps: 2.68421052632 ; where current threshold is: 3.92031926385e-07 . 

 Density error is 4.385777612e-07
                          Error Threshold = 3.92031926385e-07

       Energy                       Rydberg                            eV
   E_KohnSham                 -3.4879793239                -47.4563933112
     E_Harris                -3.48797909032                -47.4563901332
      E_Fermi               +0.481254207922                +6.54779941422

 PW ALGORITHM --------------- ION=   1  ELEC=   6--------------------------------
Average iterative diagonalization steps: 3.58020050125 ; where current threshold is: 1.096444403e-08 . 

 Density error is 8.24547230592e-09
                          Error Threshold = 1.096444403e-08

       Energy                       Rydberg                            eV
   E_KohnSham                -3.48797969728                -47.4563983913
     E_Harris                -3.48797937494                -47.4563940057
      E_Fermi               +0.481229385853                +6.54746169264

 PW ALGORITHM --------------- ION=   1  ELEC=   7--------------------------------
Average iterative diagonalization steps: 4.03383458647 ; where current threshold is: 2.06136807648e-10 . 

 Density error is 1.31229324824e-09
                          Error Threshold = 2.06136807648e-10

       Energy                       Rydberg                            eV
   E_KohnSham                -3.48797970309                -47.4563984704
     E_Harris                -3.48797970323                -47.4563984722
      E_Fermi                +0.48123109841                +6.54748499317

 PW ALGORITHM --------------- ION=   1  ELEC=   8--------------------------------
Average iterative diagonalization steps: 2.72932330827 ; where current threshold is: 3.28073312061e-11 . 

 Density error is 2.81190827e-11
                          Error Threshold = 3.28073312061e-11

       Energy                       Rydberg                            eV
   E_KohnSham                 -3.4879797033                -47.4563984732
     E_Harris                -3.48797970329                -47.4563984731
       E_band               +0.847946886069                +11.5369092519
   E_one_elec                +3.32859477748                +45.2878553068
    E_Hartree              +0.0239001124544                +0.32517771222
         E_xc                -1.94364350792                -26.4446265884
      E_Ewald                -4.89663182688                -66.6220938537
      E_demet            -0.000199258438981             -0.00271105014473
      E_descf                            +0                            +0
        E_exx                            +0                            +0
      E_Fermi               +0.481229919783                +6.54746895713

 charge density convergence is achieved
 final etot is -47.4563984732 eV

 STATE ENERGY(eV) AND OCCUPATIONS    NSPIN == 1
 1/133 kpoint (Cartesian) = 0 0 0 (1665 pws)
       1       -2.50549     0.00115741
       2        3.85804     0.00115741
       3        5.31166     0.00115741
       4        22.1291        0.00000
       5        22.1291        0.00000
       6        22.4565        0.00000

 2/133 kpoint (Cartesian) = 0.916667 0.625463 0.00000 (1683 pws)
       1       -2.33120     0.00694444
       2        4.03515     0.00694444
       3        5.47198     0.00694444
       4        18.6748        0.00000
       5        20.3800        0.00000
       6        21.2712        0.00000

 3/133 kpoint (Cartesian) = 0.833333 0.673575 0.00000 (1667 pws)
       1       -1.80871     0.00694444
       2        4.56646     0.00694444
       3        5.94506     0.00694444
       4        15.1342        0.00000
       5        18.8087        0.00000
       6        19.5219        0.00000

 4/133 kpoint (Cartesian) = 0.750000 0.721688 0.00000 (1663 pws)
       1      -0.939399     0.00694444
       2        5.45180     0.00694444
       3        6.68575    0.000180889
       4        11.9508        0.00000
       5        17.5805        0.00000
       6        17.6843        0.00000

 5/133 kpoint (Cartesian) = 0.666667 0.769800 0.00000 (1661 pws)
       1       0.273383     0.00694444
       2        6.69075    0.000153356
       3        7.29785        0.00000
       4        9.54729        0.00000
       5        15.1922        0.00000
       6        15.6419        0.00000

 6/133 kpoint (Cartesian) = 0.583333 0.817913 0.00000 (1638 pws)
       1        1.81942     0.00694444
       2        5.84852     0.00694444
       3        8.28144        0.00000
       4        9.84900        0.00000
       5        12.5431        0.00000
       6        13.5406        0.00000

 7/133 kpoint (Cartesian) = 0.500000 0.866025 0.00000 (1618 pws)
       1        3.44600     0.00347222
       2        3.98184     0.00347222
       3        10.0673        0.00000
       4        10.4042        0.00000
       5        11.0910        0.00000
       6        11.9491        0.00000

 8/133 kpoint (Cartesian) = 0.916667 1.58771 0.00000 (1659 pws)
       1       -1.98280     0.00694444
       2        4.38936     0.00694444
       3        5.78915     0.00694444
       4        16.6614        0.00000
       5        17.3931        0.00000
       6        22.7990        0.00000

 9/133 kpoint (Cartesian) = 0.916667 1.49149 0.00000 (1667 pws)
       1       -1.28684      0.0138889
       2        5.09770      0.0138889
       3        6.40362      0.0135880
       4        13.5568        0.00000
       5        15.6952        0.00000
       6        19.9445        0.00000

 10/133 kpoint (Cartesian) = 0.916667 1.39526 0.00000 (1654 pws)
       1      -0.245435      0.0138889
       2        6.15989      0.0138889
       3        7.20086        0.00000
       4        10.6586        0.00000
       5        14.5118        0.00000
       6        16.7793        0.00000

 11/133 kpoint (Cartesian) = 0.916667 1.29904 0.00000 (1650 pws)
       1        1.13590      0.0138889
       2        6.95999    4.75964e-11
       3        7.57512        0.00000
       4        9.41736        0.00000
       5        13.4670        0.00000
       6        13.9551        0.00000

 12/133 kpoint (Cartesian) = 0.916667 1.20281 0.00000 (1630 pws)
       1        2.83230      0.0138889
       2        4.91892      0.0138889
       3        9.33710        0.00000
       4        10.5746        0.00000
       5        11.4876        0.00000
       6        12.1647        0.00000

 13/133 kpoint (Cartesian) = 0.833333 1.44338 0.00000 (1659 pws)
       1      -0.418562     0.00694444
       2        5.98291     0.00694444
       3        7.11837    3.85494e-18
       4        11.9273        0.00000
       5        12.9599        0.00000
       6        18.5454        0.00000

 14/133 kpoint (Cartesian) = 0.833333 1.34715 0.00000 (1647 pws)
       1       0.792766      0.0138889
       2        7.22163        0.00000
       3        7.75691        0.00000
       4        9.70879        0.00000
       5        11.8199        0.00000
       6        15.7129        0.00000

 15/133 kpoint (Cartesian) = 0.833333 1.25093 0.00000 (1642 pws)
       1        2.33736      0.0138889
       2        6.36497      0.0138169
       3        8.81194        0.00000
       4        9.60853        0.00000
       5        11.4287        0.00000
       6        13.0706        0.00000

 16/133 kpoint (Cartesian) = 0.833333 1.15470 0.00000 (1638 pws)
       1        3.97210     0.00694444
       2        4.48501     0.00694444
       3        9.96843        0.00000
       4        10.5982        0.00000
       5        10.9324        0.00000
       6        11.5320        0.00000

 17/133 kpoint (Cartesian) = 0.750000 1.29904 0.00000 (1643 pws)
       1        2.16971     0.00694444
       2        7.85894        0.00000
       3        8.23422        0.00000
       4        8.63600        0.00000
       5        10.9963        0.00000
       6        14.8420        0.00000

 18/133 kpoint (Cartesian) = 0.750000 1.20281 0.00000 (1640 pws)
       1        3.86318      0.0138889
       2        5.93452      0.0138889
       3        7.88336        0.00000
       4        10.3964        0.00000
       5        11.7832        0.00000
       6        12.5382        0.00000

 19/133 kpoint (Cartesian) = 0.666667 1.15470 0.00000 (1632 pws)
       1        5.37529     0.00231481
       2        5.95156     0.00231481
       3        5.95157     0.00231481
       4        12.1905        0.00000
       5        12.1905        0.00000
       6        12.3479        0.00000

 20/133 kpoint (Cartesian) = 0.00000 0.00000 0.560508 (1671 pws)
       1       -2.45660     0.00231481
       2        3.25201     0.00231481
       3        6.01435     0.00231481
       4        22.1760        0.00000
       5        22.1760        0.00000
       6        22.3815        0.00000

 21/133 kpoint (Cartesian) = 0.916667 0.625463 0.560508 (1686 pws)
       1       -2.28233      0.0138889
       2        3.42607      0.0138889
       3        6.17741      0.0138889
       4        18.7162        0.00000
       5        20.4287        0.00000
       6        21.2732        0.00000

 22/133 kpoint (Cartesian) = 0.833333 0.673575 0.560508 (1669 pws)
       1       -1.75990      0.0138889
       2        3.94694      0.0138889
       3        6.65951    0.000802361
       4        15.1807        0.00000
       5        18.8578        0.00000
       6        19.4325        0.00000

 23/133 kpoint (Cartesian) = 0.750000 0.721688 0.560508 (1656 pws)
       1      -0.890705      0.0138889
       2        4.80790      0.0138889
       3        7.41684        0.00000
       4        12.0050        0.00000
       5        17.1130        0.00000
       6        17.6298        0.00000

 24/133 kpoint (Cartesian) = 0.666667 0.769800 0.560508 (1650 pws)
       1       0.321811      0.0138889
       2        5.96155      0.0138889
       3        7.95206        0.00000
       4        9.76065        0.00000
       5        14.4205        0.00000
       6        16.4140        0.00000

 25/133 kpoint (Cartesian) = 0.583333 0.817913 0.560508 (1637 pws)
       1        1.86713      0.0138889
       2        5.84605      0.0138889
       3        7.80684        0.00000
       4        10.4350        0.00000
       5        11.9208        0.00000
       6        14.2523        0.00000

 26/133 kpoint (Cartesian) = 0.500000 0.866025 0.560508 (1630 pws)
       1        3.49187     0.00694444
       2        4.02412     0.00694444
       3        9.58695        0.00000
       4        9.61568        0.00000
       5        12.0070        0.00000
       6        12.4731        0.00000

 27/133 kpoint (Cartesian) = 0.916667 1.58771 0.560508 (1668 pws)
       1       -1.93397      0.0138889
       2        3.77359      0.0138889
       3        6.50046      0.0103537
       4        16.7048        0.00000
       5        17.4357        0.00000
       6        22.3653        0.00000

 28/133 kpoint (Cartesian) = 0.916667 1.49149 0.560508 (1662 pws)
       1       -1.23809      0.0277778
       2        4.46537      0.0277778
       3        7.12834    4.62593e-18
       4        13.6044        0.00000
       5        15.7303        0.00000
       6        19.2955        0.00000

 29/133 kpoint (Cartesian) = 0.916667 1.39526 0.560508 (1653 pws)
       1      -0.196867      0.0277778
       2        5.48570      0.0277778
       3        7.93916        0.00000
       4        10.7325        0.00000
       5        14.4947        0.00000
       6        16.3355        0.00000

 30/133 kpoint (Cartesian) = 0.916667 1.29904 0.560508 (1646 pws)
       1        1.18404      0.0277778
       2        6.55542      0.0126544
       3        7.61954        0.00000
       4        9.90634        0.00000
       5        12.9774        0.00000
       6        14.1781        0.00000

 31/133 kpoint (Cartesian) = 0.916667 1.20281 0.560508 (1628 pws)
       1        2.87913      0.0277778
       2        4.95512      0.0277778
       3        8.75639        0.00000
       4        10.7074        0.00000
       5        11.3248        0.00000
       6        12.8319        0.00000

 32/133 kpoint (Cartesian) = 0.833333 1.44338 0.560508 (1659 pws)
       1      -0.369953      0.0138889
       2        5.32111      0.0138889
       3        7.86303        0.00000
       4        11.9725        0.00000
       5        13.0085        0.00000
       6        18.1263        0.00000

 33/133 kpoint (Cartesian) = 0.833333 1.34715 0.560508 (1643 pws)
       1       0.841080      0.0277778
       2        6.46551      0.0243109
       3        8.45516        0.00000
       4        9.86459        0.00000
       5        11.8788        0.00000
       6        15.2536        0.00000

 34/133 kpoint (Cartesian) = 0.833333 1.25093 0.560508 (1647 pws)
       1        2.38493      0.0277778
       2        6.36402      0.0276392
       3        8.25869        0.00000
       4        10.1009        0.00000
       5        11.4569        0.00000
       6        12.9091        0.00000

 35/133 kpoint (Cartesian) = 0.833333 1.15470 0.560508 (1640 pws)
       1        4.01814      0.0138889
       2        4.52693      0.0138889
       3        9.64236        0.00000
       4        10.0926        0.00000
       5        10.7507        0.00000
       6        12.4527        0.00000

 36/133 kpoint (Cartesian) = 0.750000 1.29904 0.560508 (1649 pws)
       1        2.21749      0.0138889
       2        7.45370        0.00000
       3        8.27927        0.00000
       4        8.79547        0.00000
       5        11.3248        0.00000
       6        14.4853        0.00000

 37/133 kpoint (Cartesian) = 0.750000 1.20281 0.560508 (1643 pws)
       1        3.90967      0.0277778
       2        5.97110      0.0277778
       3        7.88361        0.00000
       4        9.95096        0.00000
       5        11.6880        0.00000
       6        12.7780        0.00000

 38/133 kpoint (Cartesian) = 0.666667 1.15470 0.560508 (1650 pws)
       1        5.42496     0.00462963
       2        5.98772     0.00462963
       3        5.98773     0.00462963
       4        11.3736        0.00000
       5        11.8789        0.00000
       6        11.8789        0.00000

 39/133 kpoint (Cartesian) = 0.00000 0.00000 0.509553 (1677 pws)
       1       -2.30998     0.00231481
       2        2.31969     0.00231481
       3        7.23654        0.00000
       4        20.9018        0.00000
       5        22.3156        0.00000
       6        22.3156        0.00000

 40/133 kpoint (Cartesian) = 0.916667 0.625463 0.509553 (1667 pws)
       1       -2.13576      0.0138889
       2        2.49280      0.0138889
       3        7.39960        0.00000
       4        18.8303        0.00000
       5        20.5744        0.00000
[...]
       3        10.1066        0.00000
       4        17.0284        0.00000
       5        22.8531        0.00000
       6        22.8531        0.00000

 78/133 kpoint (Cartesian) = 0.916667 0.625463 0.407642 (1656 pws)
       1       -1.54996      0.0138889
       2       0.780748      0.0138889
       3        10.2650        0.00000
       4        17.1345        0.00000
       5        19.4726        0.00000
       6        21.1214        0.00000

 79/133 kpoint (Cartesian) = 0.833333 0.673575 0.407642 (1655 pws)
       1       -1.02837      0.0138889
       2        1.29955      0.0138889
       3        10.7220        0.00000
       4        15.8367        0.00000
       5        17.3795        0.00000
       6        18.2406        0.00000

 80/133 kpoint (Cartesian) = 0.750000 0.721688 0.407642 (1647 pws)
       1      -0.161050      0.0138889
       2        2.15984      0.0138889
       3        11.2323        0.00000
       4        12.9264        0.00000
       5        14.7198        0.00000
       6        18.3114        0.00000

 81/133 kpoint (Cartesian) = 0.666667 0.769800 0.407642 (1654 pws)
       1        1.04707      0.0138889
       2        3.34672      0.0138889
       3        9.45475        0.00000
       4        11.7335        0.00000
       5        13.0764        0.00000
       6        17.4910        0.00000

 82/133 kpoint (Cartesian) = 0.583333 0.817913 0.407642 (1641 pws)
       1        2.57903      0.0138889
       2        4.74618      0.0138889
       3        7.10297    4.24044e-17
       4        9.25371        0.00000
       5        14.3527        0.00000
       6        16.9635        0.00000

 83/133 kpoint (Cartesian) = 0.500000 0.866025 0.407642 (1650 pws)
       1        4.15162     0.00694444
       2        4.59580     0.00694444
       3        6.97498    6.64363e-12
       4        7.29535        0.00000
       5        15.7843        0.00000
       6        16.1005        0.00000

 84/133 kpoint (Cartesian) = 0.916667 1.58771 0.407642 (1652 pws)
       1       -1.20214      0.0138889
       2        1.12681      0.0138889
       3        10.5748        0.00000
       4        17.0497        0.00000
       5        17.7287        0.00000
       6        17.9965        0.00000

 85/133 kpoint (Cartesian) = 0.916667 1.49149 0.407642 (1651 pws)
       1      -0.507573      0.0277778
       2        1.81671      0.0277778
       3        11.1368        0.00000
       4        14.3101        0.00000
       5        15.8693        0.00000
       6        17.0209        0.00000

 86/133 kpoint (Cartesian) = 0.916667 1.39526 0.407642 (1652 pws)
       1       0.530743      0.0277778
       2        2.84297      0.0277778
       3        10.7942        0.00000
       4        12.4987        0.00000
       5        13.2876        0.00000
       6        15.8523        0.00000

 87/133 kpoint (Cartesian) = 0.916667 1.29904 0.407642 (1650 pws)
       1        1.90425      0.0277778
       2        4.17081      0.0277778
       3        8.33163        0.00000
       4        10.5661        0.00000
       5        13.4206        0.00000
       6        15.2866        0.00000

 88/133 kpoint (Cartesian) = 0.916667 1.20281 0.407642 (1649 pws)
       1        3.57157      0.0277778
       2        5.19683      0.0277778
       3        6.65560     0.00178914
       4        8.24539        0.00000
       5        13.9709        0.00000
       6        15.6508        0.00000

 89/133 kpoint (Cartesian) = 0.833333 1.44338 0.407642 (1652 pws)
       1       0.358350      0.0138889
       2        2.67397      0.0138889
       3        11.6233        0.00000
       4        12.6262        0.00000
       5        13.6272        0.00000
       6        15.6276        0.00000

 90/133 kpoint (Cartesian) = 0.833333 1.34715 0.407642 (1645 pws)
       1        1.56449      0.0277778
       2        3.85636      0.0277778
       3        9.91638        0.00000
       4        11.5603        0.00000
       5        12.3978        0.00000
       6        14.1451        0.00000

 91/133 kpoint (Cartesian) = 0.833333 1.25093 0.407642 (1637 pws)
       1        3.09464      0.0277778
       2        5.25622      0.0277778
       3        7.56221        0.00000
       4        9.59256        0.00000
       5        11.8041        0.00000
       6        13.9535        0.00000

 92/133 kpoint (Cartesian) = 0.833333 1.15470 0.407642 (1646 pws)
       1        4.68107      0.0138889
       2        5.09763      0.0138889
       3        7.46654        0.00000
       4        7.66417        0.00000
       5        11.6348        0.00000
       6        13.8477        0.00000

 93/133 kpoint (Cartesian) = 0.750000 1.29904 0.407642 (1642 pws)
       1        2.93156      0.0138889
       2        5.16290      0.0138889
       3        8.92852        0.00000
       4        9.50479        0.00000
       5        11.5903        0.00000
       6        12.2562        0.00000

 94/133 kpoint (Cartesian) = 0.750000 1.20281 0.407642 (1644 pws)
       1        4.59639      0.0277778
       2        6.22481      0.0277777
       3        7.36861        0.00000
       4        8.54264        0.00000
       5        10.1097        0.00000
       6        11.6211        0.00000

 95/133 kpoint (Cartesian) = 0.666667 1.15470 0.407642 (1647 pws)
       1        6.16997     0.00462963
       2        6.45202     0.00421288
       3        6.45204     0.00421267
       4        8.55298        0.00000
       5        9.92528        0.00000
       6        9.92529        0.00000

 96/133 kpoint (Cartesian) = 0.00000 0.00000 0.356687 (1672 pws)
       1       -1.28508     0.00231481
       2      -0.118080     0.00231481
       3        11.6986        0.00000
       4        15.1649        0.00000
       5        23.2094        0.00000
       6        23.2094        0.00000

 97/133 kpoint (Cartesian) = 0.916667 0.625463 0.356687 (1650 pws)
       1       -1.11120      0.0138889
       2      0.0554015      0.0138889
       3        11.8526        0.00000
       4        15.3002        0.00000
       5        19.8351        0.00000
       6        20.7318        0.00000

 98/133 kpoint (Cartesian) = 0.833333 0.673575 0.356687 (1651 pws)
       1      -0.590131      0.0138889
       2       0.575048      0.0138889
       3        12.2842        0.00000
       4        15.5206        0.00000
       5        16.4702        0.00000
       6        17.4809        0.00000

 99/133 kpoint (Cartesian) = 0.750000 0.721688 0.356687 (1655 pws)
       1       0.275973      0.0138889
       2        1.43765      0.0138889
       3        12.3633        0.00000
       4        13.5685        0.00000
       5        14.1884        0.00000
       6        16.7423        0.00000

 100/133 kpoint (Cartesian) = 0.666667 0.769800 0.356687 (1645 pws)
       1        1.48104      0.0138889
       2        2.63262      0.0138889
       3        9.92116        0.00000
       4        11.0752        0.00000
       5        14.5043        0.00000
       6        17.5480        0.00000

 101/133 kpoint (Cartesian) = 0.583333 0.817913 0.356687 (1644 pws)
       1        3.00189      0.0138889
       2        4.10148      0.0138889
       3        7.46844        0.00000
       4        8.56024        0.00000
       5        15.7770        0.00000
       6        17.4077        0.00000

 102/133 kpoint (Cartesian) = 0.500000 0.866025 0.356687 (1646 pws)
       1        4.49739     0.00694444
       2        4.81011     0.00694444
       3        6.44991     0.00635216
       4        6.70334    9.91731e-05
       5        16.8900        0.00000
       6        17.2318        0.00000

 103/133 kpoint (Cartesian) = 0.916667 1.58771 0.356687 (1651 pws)
       1      -0.763713      0.0138889
       2       0.401988      0.0138889
       3        12.1498        0.00000
       4        15.5332        0.00000
       5        17.7791        0.00000
       6        18.1686        0.00000

 104/133 kpoint (Cartesian) = 0.916667 1.49149 0.356687 (1655 pws)
       1     -0.0699865      0.0277778
       2        1.09336      0.0277778
       3        12.6356        0.00000
       4        14.6961        0.00000
       5        15.3858        0.00000
       6        16.1856        0.00000

 105/133 kpoint (Cartesian) = 0.916667 1.39526 0.356687 (1657 pws)
       1       0.966397      0.0277778
       2        2.12385      0.0277778
       3        11.3631        0.00000
       4        12.5241        0.00000
       5        13.9052        0.00000
       6        16.0246        0.00000

 106/133 kpoint (Cartesian) = 0.916667 1.29904 0.356687 (1644 pws)
       1        2.33441      0.0277778
       2        3.47136      0.0277778
       3        8.75776        0.00000
       4        9.88068        0.00000
       5        14.5015        0.00000
       6        15.7734        0.00000

 107/133 kpoint (Cartesian) = 0.916667 1.20281 0.356687 (1644 pws)
       1        3.97347      0.0277778
       2        4.90544      0.0277778
       3        6.66209     0.00149179
       4        7.57677        0.00000
       5        14.5787        0.00000
       6        15.7465        0.00000

 108/133 kpoint (Cartesian) = 0.833333 1.44338 0.356687 (1653 pws)
       1       0.794491      0.0138889
       2        1.95355      0.0138889
       3        12.8076        0.00000
       4        12.9807        0.00000
       5        13.7234        0.00000
       6        14.8170        0.00000

 109/133 kpoint (Cartesian) = 0.833333 1.34715 0.356687 (1650 pws)
       1        1.99722      0.0277778
       2        3.14499      0.0277778
       3        10.3466        0.00000
       4        11.3116        0.00000
       5        12.7365        0.00000
       6        13.8222        0.00000

 110/133 kpoint (Cartesian) = 0.833333 1.25093 0.356687 (1648 pws)
       1        3.51608      0.0277778
       2        4.61215      0.0277778
       3        7.92171        0.00000
       4        8.96440        0.00000
       5        12.2428        0.00000
       6        13.3600        0.00000

 111/133 kpoint (Cartesian) = 0.833333 1.15470 0.356687 (1644 pws)
       1        5.02851      0.0138889
       2        5.32105      0.0138889
       3        6.92102    1.07379e-09
       4        7.11111    1.69617e-17
       5        12.0751        0.00000
       6        13.2012        0.00000

 112/133 kpoint (Cartesian) = 0.750000 1.29904 0.356687 (1640 pws)
       1        3.35720      0.0138889
       2        4.47791      0.0138889
       3        9.27485        0.00000
       4        9.68449        0.00000
       5        11.2064        0.00000
       6        11.6441        0.00000

 113/133 kpoint (Cartesian) = 0.750000 1.20281 0.356687 (1647 pws)
       1        4.99444      0.0277778
       2        5.92343      0.0277778
       3        7.44026        0.00000
       4        8.19276        0.00000
       5        10.1358        0.00000
       6        10.9860        0.00000

 114/133 kpoint (Cartesian) = 0.666667 1.15470 0.356687 (1632 pws)
       1        6.61692    0.000762264
       2        6.62794    0.000597963
       3        6.62797    0.000597654
       4        7.80852        0.00000
       5        9.49493        0.00000
       6        9.49494        0.00000

 115/133 kpoint (Cartesian) = 0.00000 0.00000 0.305732 (1666 pws)
       1      -0.749500     0.00115741
       2      -0.749480     0.00115741
       3        13.3862        0.00000
       4        13.3862        0.00000
       5        23.4872        0.00000
       6        23.4873        0.00000

 116/133 kpoint (Cartesian) = 0.916667 0.625463 0.305732 (1646 pws)
       1      -0.575805     0.00694444
       2      -0.575784     0.00694444
       3        13.5333        0.00000
       4        13.5334        0.00000
       5        20.2727        0.00000
       6        20.2727        0.00000

 117/133 kpoint (Cartesian) = 0.833333 0.673575 0.305732 (1646 pws)
       1     -0.0553873     0.00694444
       2     -0.0553670     0.00694444
       3        13.9163        0.00000
       4        13.9163        0.00000
       5        16.8866        0.00000
       6        16.8866        0.00000

 118/133 kpoint (Cartesian) = 0.750000 0.721688 0.305732 (1650 pws)
       1       0.809155     0.00694444
       2       0.809175     0.00694444
       3        13.1672        0.00000
       4        13.1672        0.00000
       5        15.1954        0.00000
       6        15.1954        0.00000

 119/133 kpoint (Cartesian) = 0.666667 0.769800 0.305732 (1646 pws)
       1        2.00998     0.00694444
       2        2.01000     0.00694444
       3        10.4602        0.00000
       4        10.4602        0.00000
       5        16.0404        0.00000
       6        16.0404        0.00000

 120/133 kpoint (Cartesian) = 0.583333 0.817913 0.305732 (1648 pws)
       1        3.51230     0.00694444
       2        3.51232     0.00694444
       3        7.96154        0.00000
       4        7.96156        0.00000
       5        17.1523        0.00000
       6        17.1523        0.00000

 121/133 kpoint (Cartesian) = 0.500000 0.866025 0.305732 (1648 pws)
       1        4.78743     0.00347222
       2        4.78745     0.00347222
       3        6.34976     0.00346270
       4        6.34978     0.00346269
       5        17.7743        0.00000
       6        17.7743        0.00000

 122/133 kpoint (Cartesian) = 0.916667 1.58771 0.305732 (1652 pws)
       1      -0.228731     0.00694444
       2      -0.228711     0.00694444
       3        13.8096        0.00000
       4        13.8096        0.00000
       5        18.0757        0.00000
       6        18.0757        0.00000

 123/133 kpoint (Cartesian) = 0.916667 1.49149 0.305732 (1654 pws)
       1       0.463934      0.0138889
       2       0.463954      0.0138889
       3        14.1007        0.00000
       4        14.1007        0.00000
       5        15.3734        0.00000
       6        15.3734        0.00000

 124/133 kpoint (Cartesian) = 0.916667 1.39526 0.305732 (1660 pws)
       1        1.49775      0.0138889
       2        1.49777      0.0138889
       3        11.9284        0.00000
       4        11.9284        0.00000
       5        15.1996        0.00000
       6        15.1996        0.00000

 125/133 kpoint (Cartesian) = 0.916667 1.29904 0.305732 (1648 pws)
       1        2.85762      0.0138889
       2        2.85764      0.0138889
       3        9.27529        0.00000
       4        9.27531        0.00000
       5        15.3231        0.00000
       6        15.3232        0.00000

 126/133 kpoint (Cartesian) = 0.916667 1.20281 0.305732 (1642 pws)
       1        4.43795      0.0138889
       2        4.43797      0.0138889
       3        7.02859    9.71360e-14
       4        7.02861    9.69626e-14
       5        15.1754        0.00000
       6        15.1754        0.00000

 127/133 kpoint (Cartesian) = 0.833333 1.44338 0.305732 (1660 pws)
       1        1.32652     0.00694444
       2        1.32654     0.00694444
       3        13.3003        0.00000
       4        13.3004        0.00000
       5        14.0076        0.00000
       6        14.0076        0.00000

 128/133 kpoint (Cartesian) = 0.833333 1.34715 0.305732 (1652 pws)
       1        2.52451      0.0138889
       2        2.52453      0.0138889
       3        10.8270        0.00000
       4        10.8270        0.00000
       5        13.2543        0.00000
       6        13.2544        0.00000

 129/133 kpoint (Cartesian) = 0.833333 1.25093 0.305732 (1642 pws)
       1        4.02475      0.0138889
       2        4.02477      0.0138889
       3        8.39817        0.00000
       4        8.39819        0.00000
       5        12.7660        0.00000
       6        12.7660        0.00000

 130/133 kpoint (Cartesian) = 0.833333 1.15470 0.305732 (1646 pws)
       1        5.31493     0.00694444
       2        5.31496     0.00694444
       3        6.78717    2.64000e-06
       4        6.78718    2.63761e-06
       5        12.5996        0.00000
       6        12.5996        0.00000

 131/133 kpoint (Cartesian) = 0.750000 1.29904 0.305732 (1634 pws)
       1        3.87383     0.00694444
       2        3.87386     0.00694444
       3        9.59211        0.00000
       4        9.59213        0.00000
       5        11.2305        0.00000
       6        11.2305        0.00000

 132/133 kpoint (Cartesian) = 0.750000 1.20281 0.305732 (1646 pws)
       1        5.45495      0.0138889
       2        5.45497      0.0138889
       3        7.77787        0.00000
       4        7.77789        0.00000
       5        10.4701        0.00000
       6        10.4701        0.00000

 133/133 kpoint (Cartesian) = 0.666667 1.15470 0.305732 (1614 pws)
       1        6.70291    3.35786e-05
       2        6.70293    3.35499e-05
       3        7.16311        0.00000
       4        7.16314        0.00000
       5        9.33404        0.00000
       6        9.33406        0.00000



 --------------------------------------------
 !FINAL_ETOT_IS -47.45639847324608 eV
 --------------------------------------------






  |CLASS_NAME---------|NAME---------------|TIME(Sec)-----|CALLS----|AVG------|PER%-------
                                      total         105.68        17       6.2   1.0e+02%
                 Driver         driver_line         105.66         1   1.1e+02    1.e+02%
               PW_Basis      setuptransform        0.11353         1      0.11      0.11%
          ESolver_KS_PW                 Run         105.28         1   1.1e+02    1.e+02%
               PW_Basis          recip2real        0.12548        56    0.0022      0.12%
              Potential  update_from_charge        0.64067         9     0.071      0.61%
              Potential           cal_v_eff        0.63920         9     0.071      0.60%
               PW_Basis          real2recip        0.20874        88    0.0024      0.20%
                  PotXC           cal_v_eff        0.58104         9     0.065      0.55%
          XC_Functional                v_xc         57.459         5       11.       54.%
          XC_Functional          v_xc_libxc        0.57651         9     0.064      0.55%
              HSolverPW               solve         104.38         8       13.       99.%
        DiagoIterAssist      diagH_subspace         19.931      1064     0.019       19.%
             OperatorPW                hPsi         94.772     25676    0.0037       90.%
               Operator          EkineticPW        0.41057     25676   1.6e-05      0.39%
               Operator              VeffPW         94.081     25676    0.0037       89.%
             PW_Basis_K          recip2real         48.556     33334    0.0015       46.%
             PW_Basis_K    gathers_scatterp         3.8316     33334   0.00011       3.6%
             PW_Basis_K          real2recip         40.783     30996    0.0013       39.%
             PW_Basis_K    gatherp_scatters         1.5878     30996   5.1e-05       1.5%
        DiagoIterAssist     LAPACK_subspace        0.15051      1064   0.00014      0.14%
                DiagoCG           diag_once         79.971      1064     0.075       76.%
            ElecStatePW            psiToRho         3.8871         8      0.49       3.7%
 ----------------------------------------------------------------------------------------

 CLASS_NAME---------|NAME---------------|MEMORY(MB)--------
                                         28.42
             wavefunc                 psi          20.53
        Charge_Mixing                Rrho          2.002
        Charge_Mixing               dRrho          1.752
        Charge_Mixing                drho          1.752
 ----------------------------------------------------------

 Start  Time  : Wed Dec 28 12:38:33 2022
 Finish Time  : Wed Dec 28 12:40:19 2022
 Total  Time  : 0 h 1 mins 46 secs 
