 *********************************************************
 *                                                       *
 *                  WELCOME TO ABACUS v3.0               *
 *                                                       *
 *            'Atomic-orbital Based Ab-initio            *
 *                  Computation at UStc'                 *
 *                                                       *
 *          Website: http://abacus.ustc.edu.cn/          *
 *                                                       *
 *********************************************************
 Mon Mar  6 13:57:11 2023
 MAKE THE DIR         : OUT.blpstest/
Notice: symbol 'Li_locpsp' is not an element symbol!!!! set the covalent radius to be 0.
Notice: symbol 'al_locpsp' is not an element symbol!!!! set the covalent radius to be 0.
 UNIFORM GRID DIM     : 60 * 60 * 60
 UNIFORM GRID DIM(BIG): 60 * 60 * 60
func,idXC_GGA_X_PBE 101
func,idXC_GGA_C_PBE 130
 DONE(0.383188   SEC) : SETUP UNITCELL
 DONE(0.416842   SEC) : SYMMETRY
 DONE(0.567967   SEC) : INIT K-POINTS
 ---------------------------------------------------------
 Self-consistent calculations for electrons
 ---------------------------------------------------------
 SPIN    KPOINTS         PROCESSORS  
 1       286             1           
 ---------------------------------------------------------
 Use plane wave basis
 ---------------------------------------------------------
 ELEMENT NATOM       XC          
 Li      8           
 Al      8           
 ---------------------------------------------------------
 Initial plane wave basis and FFT box
 ---------------------------------------------------------
 DONE(1.00147    SEC) : INIT PLANEWAVE
 MEMORY FOR PSI (MB)  : 1526.01
 DONE(1.72225    SEC) : LOCAL POTENTIAL
 DONE(1.72231    SEC) : NON-LOCAL POTENTIAL
 DONE(1.72238    SEC) : INIT BASIS
 START CHARGE      : atomic
 DONE(2.1496     SEC) : INIT SCF
 ITER   ETOT(eV)       EDIFF(eV)      DRHO       TIME(s)    
 CG1    -5.188665e+02  0.000000e+00   3.901e+00  3.449e+03  
 CG2    -5.279982e+02  -9.131691e+00  8.946e-02  8.838e+02  
 CG3    -5.285830e+02  -5.847629e-01  5.401e-03  9.940e+02  
 CG4    -5.286073e+02  -2.438423e-02  3.384e-04  6.264e+02  
 CG5    -5.286083e+02  -1.007666e-03  1.865e-04  5.223e+02  
 CG6    -5.286089e+02  -5.247616e-04  6.450e-06  3.022e+02  
 CG7    -5.286089e+02  -2.381957e-05  3.152e-07  3.488e+02  
 CG8    -5.286089e+02  -1.111350e-06  1.411e-08  3.131e+02  
 CG9    -5.286089e+02  -8.210045e-08  3.767e-10  3.274e+02  

  |CLASS_NAME---------|NAME---------------|TIME(Sec)-----|CALLS----|AVG------|PER%-------
                       total               7769.4         17        4.6e+02   1e+02     %
   Driver              driver_line         7769.3         1         7.8e+03   1e+02     %
   PW_Basis            setuptransform      0.3449         1         0.34      0.0044    %
   PW_Basis_K          setuptransform      0.29375        1         0.29      0.0038    %
   PW_Basis            setup_struc_factor  0.63232        1         0.63      0.0081    %
   ESolver_KS_PW       Run                 7767.6         1         7.8e+03   1e+02     %
   PW_Basis            recip2real          0.53708        62        0.0087    0.0069    %
   Potential           init_pot            0.31017        1         0.31      0.004     %
   Potential           update_from_charge  2.6897         10        0.27      0.035     %
   Potential           cal_v_eff           2.6784         10        0.27      0.034     %
   H_Hartree_pw        v_hartree           0.22105        10        0.022     0.0028    %
   PW_Basis            real2recip          0.79504        98        0.0081    0.01      %
   PotXC               cal_v_eff           2.4409         10        0.24      0.031     %
   XC_Functional       v_xc                5641.6         5         1.1e+03   73        %
   XC_Functional       v_xc_libxc          2.4199         10        0.24      0.031     %
   Symmetry            rho_symmetry        0.10501        10        0.011     0.0014    %
   HSolverPW           solve               7764.2         9         8.6e+02   1e+02     %
   WF_atomic           atomic_wfc          2.118          286       0.0074    0.027     %
   WF_igk              get_sk              1.8512         4576      0.0004    0.024     %
   DiagoIterAssist     diagH_subspace      1111.3         2574      0.43      14        %
   OperatorPW          hPsi                6396.5         334486    0.019     82        %
   Operator            EkineticPW          29.552         334486    8.8e-05   0.38      %
   Operator            VeffPW              6355.9         334486    0.019     82        %
   PW_Basis_K          recip2real          3239.2         453489    0.0071    42        %
   PW_Basis_K          gathers_scatterp    498.52         453489    0.0011    6.4       %
   PW_Basis_K          real2recip          2738.3         409132    0.0067    35        %
   PW_Basis_K          gatherp_scatters    135.49         409132    0.00033   1.7       %
   Operator            NonlocalPW          0.54835        334486    1.6e-06   0.0071    %
   DiagoIterAssist     LAPACK_subspace     1.1814         2574      0.00046   0.015     %
   DiagoCG             diag_once           6339.8         2574      2.5       82        %
   ElecStatePW         psiToRho            287.09         9         32        3.7       %
   Charge              mix_rho             0.2589         8         0.032     0.0033    %
 ----------------------------------------------------------------------------------------

 START  Time  : Mon Mar  6 13:57:11 2023
 FINISH Time  : Mon Mar  6 16:06:40 2023
 TOTAL  Time  : 7.8e+03
 SEE INFORMATION IN : OUT.blpstest/
