 *********************************************************
 *                                                       *
 *                  WELCOME TO ABACUS v3.0               *
 *                                                       *
 *            'Atomic-orbital Based Ab-initio            *
 *                  Computation at UStc'                 *
 *                                                       *
 *          Website: http://abacus.ustc.edu.cn/          *
 *                                                       *
 *********************************************************
 Tue May  2 12:50:04 2023
 MAKE THE DIR         : OUT.blpstest/
Notice: symbol 'mg_locpsp' is not an element symbol!!!! set the covalent radius to be 0.
 UNIFORM GRID DIM     : 32 * 32 * 32
 UNIFORM GRID DIM(BIG): 32 * 32 * 32
func,idXC_GGA_X_PBE 101
func,idXC_GGA_C_PBE 130
 DONE(0.160882   SEC) : SETUP UNITCELL
 DONE(0.214076   SEC) : SYMMETRY
 DONE(0.21428    SEC) : INIT K-POINTS
 ---------------------------------------------------------
 Self-consistent calculations for electrons
 ---------------------------------------------------------
 SPIN    KPOINTS         PROCESSORS  
 1       1               1           
 ---------------------------------------------------------
 Use plane wave basis
 ---------------------------------------------------------
 ELEMENT NATOM       XC          
 Mg      1           
 ---------------------------------------------------------
 Initial plane wave basis and FFT box
 ---------------------------------------------------------
 DONE(0.21614    SEC) : INIT BASIS
 DONE(0.216166   SEC) : INIT PHI
 DONE(0.276445   SEC) : LOCAL POTENTIAL
 DONE(0.276475   SEC) : NON-LOCAL POTENTIAL
 START CHARGE      : atomic
 DONE(0.384069   SEC) : INIT POTENTIAL
 DONE(0.384208   SEC) : INIT OPTIMIZATION
Default type: double
 DONE(0.386063   SEC) : INIT KEDF
======================== Running OFDFT ========================
Iter        Etot(Ha)          Theta      PotNorm     deltaE(Ha)
0     -8.500781160746e-01   2.000e-01   9.993e-02   -8.501e-01  
1     -8.543875153333e-01   3.517e-02   1.281e-01   -4.309e-03  
2     -8.891946150907e-01   8.528e-02   5.272e-02   -3.481e-02  
3     -8.908493336698e-01   1.100e-02   6.336e-03   -1.655e-03  
4     -8.908694746112e-01   2.508e-03   9.562e-04   -2.014e-05  
5     -8.908697271021e-01   2.287e-04   8.461e-05   -2.525e-07  
6     -8.908697331630e-01   4.721e-05   7.770e-06   -6.061e-09  

  |CLASS_NAME---------|NAME---------------|TIME(Sec)-----|CALLS----|AVG------|PER%-------
                       total               26.571         21        1.3       1e+02     %
   Driver              driver_line         26.56          1         27        1e+02     %
   PW_Basis            setuptransform      0.13821        1         0.14      0.52      %
   PW_Basis            recip2real          4.9956         2478      0.002     19        %
   PW_Basis            gathers_scatterp    0.90459        2478      0.00037   3.4       %
   Potential           update_from_charge  15.845         191       0.083     60        %
   Potential           cal_v_eff           15.842         191       0.083     60        %
   H_Hartree_pw        v_hartree           1.3528         191       0.0071    5.1       %
   PW_Basis            real2recip          5.2013         2478      0.0021    20        %
   PW_Basis            gatherp_scatters    0.76143        2478      0.00031   2.9       %
   PotXC               cal_v_eff           14.377         191       0.075     54        %
   XC_Functional       v_xc                12.955         96        0.13      49        %
   XC_Functional       v_xc_libxc          14.149         191       0.074     53        %
   ESolver_OF          Run                 26.181         1         26        99        %
   KEDF_LKT            LKT_potential       8.3759         190       0.044     32        %
   KEDF_vW             vw_potential        1.1593         190       0.0061    4.4       %
 ----------------------------------------------------------------------------------------

 START  Time  : Tue May  2 12:50:04 2023
 FINISH Time  : Tue May  2 12:50:31 2023
 TOTAL  Time  : 27
 SEE INFORMATION IN : OUT.blpstest/
