 *********************************************************
 *                                                       *
 *                  WELCOME TO ABACUS v3.0               *
 *                                                       *
 *            'Atomic-orbital Based Ab-initio            *
 *                  Computation at UStc'                 *
 *                                                       *
 *          Website: http://abacus.ustc.edu.cn/          *
 *                                                       *
 *********************************************************
 Wed Dec 28 12:44:16 2022
 MAKE THE DIR         : OUT.blpstest/
Notice: symbol 'mg_locpsp' is not an element symbol!!!! set the covalent radius to be 0.
 UNIFORM GRID DIM     : 30 * 30 * 30
 UNIFORM GRID DIM(BIG): 30 * 30 * 30
func,idXC_GGA_X_PBE 101
func,idXC_GGA_C_PBE 130
 DONE(0.171385   SEC) : SETUP UNITCELL
 DONE(0.235579   SEC) : SYMMETRY
 DONE(0.689901   SEC) : INIT K-POINTS
 ---------------------------------------------------------
 Self-consistent calculations for electrons
 ---------------------------------------------------------
 SPIN    KPOINTS         PROCESSORS  
 1       256             1           
 ---------------------------------------------------------
 Use plane wave basis
 ---------------------------------------------------------
 ELEMENT NATOM       XC          
 Mg      1           
 ---------------------------------------------------------
 Initial plane wave basis and FFT box
 ---------------------------------------------------------
 DONE(0.835008   SEC) : INIT PLANEWAVE
 MEMORY FOR PSI (MB)  : 29.625
 DONE(0.852383   SEC) : LOCAL POTENTIAL
 DONE(0.852679   SEC) : NON-LOCAL POTENTIAL
 DONE(0.853197   SEC) : INIT BASIS
 START CHARGE      : atomic
 DONE(0.931601   SEC) : INIT SCF
 ITER   ETOT(eV)       EDIFF(eV)      DRHO       TIME(s)    
 CG1    -2.399067e+01  0.000000e+00   4.562e-02  3.171e+01  
 CG2    -2.420686e+01  -2.161935e-01  4.313e-03  1.167e+01  
 CG3    -2.421089e+01  -4.027152e-03  6.224e-06  7.184e+00  
 CG4    -2.421122e+01  -3.361919e-04  8.012e-06  1.037e+01  
 CG5    -2.421125e+01  -2.556813e-05  3.328e-07  4.846e+00  
 CG6    -2.421125e+01  -3.801182e-06  2.099e-06  6.580e+00  
 CG7    -2.421126e+01  -2.399697e-06  1.100e-06  4.392e+00  
 CG8    -2.421126e+01  -1.450792e-07  4.181e-10  3.962e+00  

  |CLASS_NAME---------|NAME---------------|TIME(Sec)-----|CALLS----|AVG------|PER%-------
                       total               81.649         17        4.8       1e+02     %
   Driver              driver_line         81.632         1         82        1e+02     %
   PW_Basis            setuptransform      0.14611        1         0.15      0.18      %
   PW_Basis_K          setuptransform      0.11234        1         0.11      0.14      %
   ESolver_KS_PW       Run                 80.789         1         81        99        %
   Potential           update_from_charge  0.2497         9         0.028     0.31      %
   Potential           cal_v_eff           0.24765        9         0.028     0.3       %
   PotXC               cal_v_eff           0.22832        9         0.025     0.28      %
   XC_Functional       v_xc                48.143         5         9.6       59        %
   XC_Functional       v_xc_libxc          0.22774        9         0.025     0.28      %
   HSolverPW           solve               80.462         8         10        99        %
   DiagoIterAssist     diagH_subspace      16.265         2048      0.0079    20        %
   OperatorPW          hPsi                74.594         43339     0.0017    91        %
   Operator            EkineticPW          0.25471        43339     5.9e-06   0.31      %
   Operator            VeffPW              74.128         43339     0.0017    91        %
   PW_Basis_K          recip2real          38.23          55842     0.00068   47        %
   PW_Basis_K          gathers_scatterp    2.8902         55842     5.2e-05   3.5       %
   PW_Basis_K          real2recip          32.862         53579     0.00061   40        %
   PW_Basis_K          gatherp_scatters    1.1805         53579     2.2e-05   1.4       %
   DiagoIterAssist     LAPACK_subspace     0.10927        2048      5.3e-05   0.13      %
   DiagoCG             diag_once           61.783         2048      0.03      76        %
   ElecStatePW         psiToRho            1.44           8         0.18      1.8       %
 ----------------------------------------------------------------------------------------

 START  Time  : Wed Dec 28 12:44:16 2022
 FINISH Time  : Wed Dec 28 12:45:38 2022
 TOTAL  Time  : 82
 SEE INFORMATION IN : OUT.blpstest/
