 *********************************************************
 *                                                       *
 *                  WELCOME TO ABACUS v3.0               *
 *                                                       *
 *            'Atomic-orbital Based Ab-initio            *
 *                  Computation at UStc'                 *
 *                                                       *
 *          Website: http://abacus.ustc.edu.cn/          *
 *                                                       *
 *********************************************************
 Mon Apr 17 14:43:51 2023
 MAKE THE DIR         : OUT.blpstest/
Notice: symbol 'al_locpsp' is not an element symbol!!!! set the covalent radius to be 0.
 UNIFORM GRID DIM     : 27 * 27 * 27
 UNIFORM GRID DIM(BIG): 27 * 27 * 27
func,idXC_GGA_X_PBE 101
func,idXC_GGA_C_PBE 130
 DONE(0.115735   SEC) : SETUP UNITCELL
 DONE(0.189581   SEC) : SYMMETRY
 DONE(0.785982   SEC) : INIT K-POINTS
 ---------------------------------------------------------
 Self-consistent calculations for electrons
 ---------------------------------------------------------
 SPIN    KPOINTS         PROCESSORS  
 1       256             1           
 ---------------------------------------------------------
 Use plane wave basis
 ---------------------------------------------------------
 ELEMENT NATOM       XC          
 Al      1           
 ---------------------------------------------------------
 Initial plane wave basis and FFT box
 ---------------------------------------------------------
 DONE(0.786998   SEC) : INIT BASIS
 DONE(0.787026   SEC) : INIT PHI
 DONE(0.845127   SEC) : LOCAL POTENTIAL
 DONE(0.845166   SEC) : NON-LOCAL POTENTIAL
 START CHARGE      : atomic
 DONE(0.957249   SEC) : INIT POTENTIAL
 DONE(0.957308   SEC) : INIT OPTIMIZATION
 DONE(0.958271   SEC) : INIT KEDF
======================== Running OFDFT ========================
Iter        Etot(Ha)          Theta      PotNorm     deltaE(Ha)
0     -2.017386076816e+00   2.000e-01   2.135e-01   -2.017e+00  
1     -2.098770216525e+00   9.607e-02   1.318e-01   -8.138e-02  
2     -2.101322863602e+00   1.205e-02   1.446e-02   -2.553e-03  
3     -2.101359996690e+00   1.542e-03   6.560e-03   -3.713e-05  
4     -2.101380762944e+00   2.359e-03   5.599e-04   -2.077e-05  
5     -2.101380806097e+00   3.621e-05   1.785e-04   -4.315e-08  
6     -2.101380817868e+00   4.674e-05   2.303e-05   -1.177e-08  

  |CLASS_NAME---------|NAME---------------|TIME(Sec)-----|CALLS----|AVG------|PER%-------
                       total               11.881         21        0.57      1e+02     %
   Driver              driver_line         11.87          1         12        1e+02     %
   PW_Basis            recip2real          1.9911         1349      0.0015    17        %
   PW_Basis            gathers_scatterp    0.14472        1349      0.00011   1.2       %
   Potential           update_from_charge  6.4356         150       0.043     54        %
   Potential           cal_v_eff           6.4337         150       0.043     54        %
   H_Hartree_pw        v_hartree           0.52885        150       0.0035    4.5       %
   PW_Basis            real2recip          2.5322         1647      0.0015    21        %
   PW_Basis            gatherp_scatters    0.11717        1647      7.1e-05   0.99      %
   PotXC               cal_v_eff           5.8841         150       0.039     50        %
   XC_Functional       v_xc                5.4274         75        0.072     46        %
   XC_Functional       v_xc_libxc          5.8714         150       0.039     49        %
   ESolver_OF          Run                 10.922         1         11        92        %
   KEDF_TF             tf_potential        0.77352        149       0.0052    6.5       %
   KEDF_WT             wt_potential        3.0566         149       0.021     26        %
   KEDF_vW             vw_potential        0.49543        149       0.0033    4.2       %
 ----------------------------------------------------------------------------------------

 START  Time  : Mon Apr 17 14:43:51 2023
 FINISH Time  : Mon Apr 17 14:44:03 2023
 TOTAL  Time  : 12
 SEE INFORMATION IN : OUT.blpstest/
