 *********************************************************
 *                                                       *
 *                  WELCOME TO ABACUS v3.0               *
 *                                                       *
 *            'Atomic-orbital Based Ab-initio            *
 *                  Computation at UStc'                 *
 *                                                       *
 *          Website: http://abacus.ustc.edu.cn/          *
 *                                                       *
 *********************************************************
 Mon Apr 17 14:43:51 2023
 MAKE THE DIR         : OUT.blpstest/
Notice: symbol 'al_locpsp' is not an element symbol!!!! set the covalent radius to be 0.
 UNIFORM GRID DIM     : 27 * 27 * 27
 UNIFORM GRID DIM(BIG): 27 * 27 * 27
func,idXC_GGA_X_PBE 101
func,idXC_GGA_C_PBE 130
 DONE(0.122528   SEC) : SETUP UNITCELL
 DONE(0.180731   SEC) : SYMMETRY
 DONE(0.547873   SEC) : INIT K-POINTS
 ---------------------------------------------------------
 Self-consistent calculations for electrons
 ---------------------------------------------------------
 SPIN    KPOINTS         PROCESSORS  
 1       256             1           
 ---------------------------------------------------------
 Use plane wave basis
 ---------------------------------------------------------
 ELEMENT NATOM       XC          
 Al      1           
 ---------------------------------------------------------
 Initial plane wave basis and FFT box
 ---------------------------------------------------------
 DONE(0.549267   SEC) : INIT BASIS
 DONE(0.549295   SEC) : INIT PHI
 DONE(0.594437   SEC) : LOCAL POTENTIAL
 DONE(0.594477   SEC) : NON-LOCAL POTENTIAL
 START CHARGE      : atomic
 DONE(0.676135   SEC) : INIT POTENTIAL
 DONE(0.676195   SEC) : INIT OPTIMIZATION
 DONE(0.677136   SEC) : INIT KEDF
======================== Running OFDFT ========================
Iter        Etot(Ha)          Theta      PotNorm     deltaE(Ha)
0     -2.022153834827e+00   2.000e-01   1.971e-01   -2.022e+00  
1     -2.032186314542e+00   3.894e-02   2.688e-01   -1.003e-02  
2     -2.033107706883e+00   7.658e-03   2.826e-01   -9.214e-04  
3     -2.098293288520e+00   7.374e-02   7.028e-02   -6.519e-02  
4     -2.098660575169e+00   3.008e-03   5.584e-03   -3.673e-04  
5     -2.098666533551e+00   5.629e-04   3.330e-03   -5.958e-06  
6     -2.098669096068e+00   5.865e-04   1.118e-03   -2.563e-06  
7     -2.098669232767e+00   1.118e-04   3.338e-04   -1.367e-07  
8     -2.098669243244e+00   2.652e-05   1.664e-04   -1.048e-08  

  |CLASS_NAME---------|NAME---------------|TIME(Sec)-----|CALLS----|AVG------|PER%-------
                       total               14.046         21        0.67      1e+02     %
   Driver              driver_line         14.028         1         14        1e+02     %
   PW_Basis            recip2real          2.3542         2051      0.0011    17        %
   PW_Basis            gathers_scatterp    0.16345        2051      8e-05     1.2       %
   Potential           update_from_charge  7.8135         228       0.034     56        %
   Potential           cal_v_eff           7.8113         228       0.034     56        %
   H_Hartree_pw        v_hartree           0.63104        228       0.0028    4.5       %
   PW_Basis            real2recip          3.0543         2505      0.0012    22        %
   PW_Basis            gatherp_scatters    0.21918        2505      8.7e-05   1.6       %
   PotXC               cal_v_eff           7.1478         228       0.031     51        %
   XC_Functional       v_xc                6.6976         114       0.059     48        %
   XC_Functional       v_xc_libxc          7.1276         228       0.031     51        %
   ESolver_OF          Run                 13.368         1         13        95        %
   KEDF_TF             tf_potential        1.0148         227       0.0045    7.2       %
   KEDF_WT             wt_potential        3.651          227       0.016     26        %
   KEDF_vW             vw_potential        0.65361        227       0.0029    4.7       %
 ----------------------------------------------------------------------------------------

 START  Time  : Mon Apr 17 14:43:51 2023
 FINISH Time  : Mon Apr 17 14:44:05 2023
 TOTAL  Time  : 14
 SEE INFORMATION IN : OUT.blpstest/
