                                                                                     
                             WELCOME TO ABACUS                                       
                                                                                     
               'Atomic-orbital Based Ab-initio Computation at UStc'                  
                                                                                     
                     Website: http://abacus.ustc.edu.cn/                             
                                                                                     
    Version: Parallel, in development
    Processor Number is 1
    Start Time is Sat Aug  7 21:52:24 2021
                                                                                     
 ------------------------------------------------------------------------------------

 READING GENERAL INFORMATION
                           global_out_dir = OUT.stack/
                           global_in_card = INPUT
                               pseudo_dir = ./
                              pseudo_type = blps
                                    DRANK = 1
                                    DSIZE = 1
                                   DCOLOR = 1
                                    GRANK = 1
                                    GSIZE = 1




 >>>>>>>>>>>>>>>>>>>>>>>>>>>>>>>>>>>>>>>>>>>>>>>>>>>>>>>>>>>>>>>>>>>>>>
 |                                                                    |
 | Reading atom information in unitcell:                              |
 | From the input file and the structure file we know the number of   |
 | different elments in this unitcell, then we list the detail        |
 | information for each element, especially the zeta and polar atomic |
 | orbital number for each element. The total atom number is counted. |
 | We calculate the nearest atom distance for each atom and show the  |
 | Cartesian and Direct coordinates for each atom. We list the file   |
 | address for atomic orbitals. The volume and the lattice vectors    |
 | in real and reciprocal space is also shown.                        |
 |                                                                    |
 <<<<<<<<<<<<<<<<<<<<<<<<<<<<<<<<<<<<<<<<<<<<<<<<<<<<<<<<<<<<<<<<<<<<<<




 READING UNITCELL INFORMATION
                                    ntype = 1
                 atom label for species 1 = Al
                  lattice constant (Bohr) = 7.50241
              lattice constant (Angstrom) = 3.9701

 READING ATOM TYPE 1
                               atom label = Al
                      start magnetization = FALSE
                      L=0, number of zeta = 1
                      L=1, number of zeta = 1
                      L=2, number of zeta = 1
             number of atom for this type = 20

                        TOTAL ATOM NUMBER = 20

 DIRECT COORDINATES
         atom                   x                   y                   z                 mag
     taud_Al1                   0                   0                   0                   0
     taud_Al2            0.333333            0.333333                0.05                   0
     taud_Al3            0.666667            0.666667                 0.1                   0
     taud_Al4                   0                   0                0.15                   0
     taud_Al5            0.333333            0.333333                 0.2                   0
     taud_Al6            0.933333            0.933333                0.25                   0
     taud_Al7            0.266667            0.266667                 0.3                   0
     taud_Al8                 0.6                 0.6                0.35                   0
     taud_Al9            0.933333            0.933333                 0.4                   0
    taud_Al10            0.266667            0.266667                0.45                   0
    taud_Al11            0.933333            0.933333                 0.5                   0
    taud_Al12                 0.6                 0.6                0.55                   0
    taud_Al13            0.266667            0.266667                 0.6                   0
    taud_Al14            0.933333            0.933333                0.65                   0
    taud_Al15            0.333333            0.333333                 0.7                   0
    taud_Al16                   0                   0                0.75                   0
    taud_Al17            0.666667            0.666667                 0.8                   0
    taud_Al18            0.333333            0.333333                0.85                   0
    taud_Al19                   0                   0                 0.9                   0
    taud_Al20            0.666667            0.666667                0.95                   0


                          Volume (Bohr^3) = 2111.41
                             Volume (A^3) = 312.878

 Lattice vectors: (Cartesian coordinate: in unit of a_0)
            +0.707107                  +0                  +0
            +0.353553           +0.612372                  +0
                   +0                  +0             +11.547
 Reciprocal vectors: (Cartesian coordinate: in unit of 2 pi/a_0)
             +1.41421           -0.816497                  +0
                   -0            +1.63299                  -0
                   +0                  -0          +0.0866025




 >>>>>>>>>>>>>>>>>>>>>>>>>>>>>>>>>>>>>>>>>>>>>>>>>>>>>>>>>>>>>>>>>>>>>>
 |                                                                    |
 | Reading pseudopotentials files:                                    |
 | The pseudopotential file is in UPF format. The 'NC' indicates that |
 | the type of pseudopotential is 'norm conserving'. Functional of    |
 | exchange and correlation is decided by 4 given parameters in UPF   |
 | file.  We also read in the 'core correction' if there exists.      |
 | Also we can read the valence electrons number and the maximal      |
 | angular momentum used in this pseudopotential. We also read in the |
 | trail wave function, trail atomic density and local-pseudopotential|
 | on logrithmic grid. The non-local pseudopotential projector is also|
 | read in if there is any.                                           |
 |                                                                    |
 <<<<<<<<<<<<<<<<<<<<<<<<<<<<<<<<<<<<<<<<<<<<<<<<<<<<<<<<<<<<<<<<<<<<<<




                PAO radial cut off (Bohr) = 16

 Read in pseudopotential file is al.lda.lps
                     pseudopotential type = 
                            functional Ex = LDA
                            functional Ec = LDA
                          functional GCEx = NOGX
                          functional GCEc = NOGC
                 nonlocal core correction = 0
                        valence electrons = 3
                                     lmax = 0
                           number of zeta = 0
                     number of projectors = 0
     initial pseudo atomic orbital number = 0
                                   NLOCAL = 180

 SETUP THE ELECTRONS NUMBER
            electron number of element Al = 3
      total electron number of element Al = 60
                           occupied bands = 30
                                   NBANDS = 60
 DONE : SETUP UNITCELL Time : 0.011781 (SEC)





 >>>>>>>>>>>>>>>>>>>>>>>>>>>>>>>>>>>>>>>>>>>>>>>>>>>>>>>>>>>>>>>>>>>>>>
 |                                                                    |
 | Doing symmetry analysis:                                           |
 | We calculate the norm of 3 vectors and the angles between them,    |
 | the type of Bravais lattice is given. We can judge if the unticell |
 | is a primitive cell. Finally we give the point group operation for |
 | this unitcell. We we use the point group operations to do symmetry |
 | analysis on given k-point mesh and the charge density.             |
 |                                                                    |
 <<<<<<<<<<<<<<<<<<<<<<<<<<<<<<<<<<<<<<<<<<<<<<<<<<<<<<<<<<<<<<<<<<<<<<




 LATTICE VECTORS: (CARTESIAN COORDINATE: IN UNIT OF A0)
            +0.707107                  +0                  +0
            +0.353553           +0.612372                  +0
                   +0                  +0             +11.547
                       right hand lattice = 1
                                   NORM_A = 0.707107
                                   NORM_B = 0.707107
                                   NORM_C = 11.547
                           ALPHA (DEGREE) = 60
                           BETA  (DEGREE) = 90
                           GAMMA (DEGREE) = 90
                             BRAVAIS TYPE = 4
                     BRAVAIS LATTICE NAME = 04. Hexagonal cell
 STANDARD LATTICE VECTORS: (CARTESIAN COORDINATE: IN UNIT OF A0)
            +0.707107                  +0                  +0
            +0.353553           +0.612372                  +0
                   +0                  +0             +11.547
                                    IBRAV = 4
                                  BRAVAIS = HEXAGONAL CELL
                       LATTICE CONSTANT A = 34.7347
                                C/A RATIO = 0.667046
                                    ibrav = 4
                        ROTATION MATRICES = 24
              PURE POINT GROUP OPERATIONS = 2
                   SPACE GROUP OPERATIONS = 2
                                       C2 = 0
                                       C3 = 0
                                       C4 = 0
                                       C6 = 0
                                       S1 = 1
                                       S3 = 0
                                       S4 = 0
                                       S6 = 0
                              POINT GROUP = C_1h
 DONE : SYMMETRY Time : 0.0821798 (SEC)





 >>>>>>>>>>>>>>>>>>>>>>>>>>>>>>>>>>>>>>>>>>>>>>>>>>>>>>>>>>>>>>>>>>>>>>
 |                                                                    |
 | Setup K-points                                                     |
 | We setup the k-points according to input parameters.               |
 | The reduced k-points are set according to symmetry operations.     |
 | We treat the spin as another set of k-points.                      |
 |                                                                    |
 <<<<<<<<<<<<<<<<<<<<<<<<<<<<<<<<<<<<<<<<<<<<<<<<<<<<<<<<<<<<<<<<<<<<<<





 SETUP K-POINTS
                                    nspin = 1
                   Input type of k points = Monkhorst-Pack(Gamma)
                                   nkstot = 100
                               nkstot_ibz = 31
      IBZ             DirectX             DirectY             DirectZ              Weight    ibz2bz
        1                   0                   0                   0                0.01         0
        2                   0                 0.9                   0                0.04         1
        3                 0.8                   0                   0                0.04         2
        4                   0                 0.7                   0                0.04         3
        5                 0.6                   0                   0                0.04         4
        6                   0                 0.5                   0                0.02         5
        7                 0.9                 0.9                   0                0.02        11
        8                 0.9                 0.8                   0                0.04        12
        9                 0.9                 0.7                   0                0.04        13
       10                 0.9                 0.6                   0                0.04        14
       11                 0.9                 0.5                   0                0.04        15
       12                 0.9                 0.4                   0                0.04        16
       13                 0.9                 0.3                   0                0.04        17
       14                 0.9                 0.2                   0                0.04        18
       15                 0.9                 0.1                   0                0.02        19
       16                 0.8                 0.8                   0                0.02        22
       17                 0.8                 0.7                   0                0.04        23
       18                 0.8                 0.6                   0                0.04        24
       19                 0.8                 0.5                   0                0.04        25
       20                 0.8                 0.4                   0                0.04        26
       21                 0.8                 0.3                   0                0.04        27
       22                 0.2                 0.8                   0                0.02        28
       23                 0.7                 0.7                   0                0.02        33
       24                 0.7                 0.6                   0                0.04        34
       25                 0.7                 0.5                   0                0.04        35
       26                 0.7                 0.4                   0                0.04        36
       27                 0.7                 0.3                   0                0.02        37
       28                 0.6                 0.6                   0                0.02        44
       29                 0.6                 0.5                   0                0.04        45
       30                 0.4                 0.6                   0                0.02        46
       31                 0.5                 0.5                   0                0.01        55
                               nkstot now = 31

  KPOINTS            DIRECT_X            DIRECT_Y            DIRECT_Z              WEIGHT
        1                   0                   0                   0                0.01
        2                   0                 0.9                   0                0.04
        3                 0.8                   0                   0                0.04
        4                   0                 0.7                   0                0.04
        5                 0.6                   0                   0                0.04
        6                   0                 0.5                   0                0.02
        7                 0.9                 0.9                   0                0.02
        8                 0.9                 0.8                   0                0.04
        9                 0.9                 0.7                   0                0.04
       10                 0.9                 0.6                   0                0.04
       11                 0.9                 0.5                   0                0.04
       12                 0.9                 0.4                   0                0.04
       13                 0.9                 0.3                   0                0.04
       14                 0.9                 0.2                   0                0.04
       15                 0.9                 0.1                   0                0.02
       16                 0.8                 0.8                   0                0.02
       17                 0.8                 0.7                   0                0.04
       18                 0.8                 0.6                   0                0.04
       19                 0.8                 0.5                   0                0.04
       20                 0.8                 0.4                   0                0.04
       21                 0.8                 0.3                   0                0.04
       22                 0.2                 0.8                   0                0.02
       23                 0.7                 0.7                   0                0.02
       24                 0.7                 0.6                   0                0.04
       25                 0.7                 0.5                   0                0.04
       26                 0.7                 0.4                   0                0.04
       27                 0.7                 0.3                   0                0.02
       28                 0.6                 0.6                   0                0.02
       29                 0.6                 0.5                   0                0.04
       30                 0.4                 0.6                   0                0.02
       31                 0.5                 0.5                   0                0.01

           k-point number in this process = 31
       minimum distributed K point number = 31

  KPOINTS         CARTESIAN_X         CARTESIAN_Y         CARTESIAN_Z              WEIGHT
        1                   0                   0                   0                0.02
        2                   0             1.46969                   0                0.08
        3             1.13137           -0.653197                   0                0.08
        4                   0              1.1431                   0                0.08
        5            0.848528           -0.489898                   0                0.08
        6                   0            0.816497                   0                0.04
        7             1.27279            0.734847                   0                0.04
        8             1.27279            0.571548                   0                0.08
        9             1.27279            0.408248                   0                0.08
       10             1.27279            0.244949                   0                0.08
       11             1.27279           0.0816497                   0                0.08
       12             1.27279          -0.0816497                   0                0.08
       13             1.27279           -0.244949                   0                0.08
       14             1.27279           -0.408248                   0                0.08
       15             1.27279           -0.571548                   0                0.04
       16             1.13137            0.653197                   0                0.04
       17             1.13137            0.489898                   0                0.08
       18             1.13137            0.326599                   0                0.08
       19             1.13137            0.163299                   0                0.08
       20             1.13137                   0                   0                0.08
       21             1.13137           -0.163299                   0                0.08
       22            0.282843              1.1431                   0                0.04
       23            0.989949            0.571548                   0                0.04
       24            0.989949            0.408248                   0                0.08
       25            0.989949            0.244949                   0                0.08
       26            0.989949           0.0816497                   0                0.08
       27            0.989949          -0.0816497                   0                0.04
       28            0.848528            0.489898                   0                0.04
       29            0.848528            0.326599                   0                0.08
       30            0.565685            0.653197                   0                0.04
       31            0.707107            0.408248                   0                0.02

  KPOINTS            DIRECT_X            DIRECT_Y            DIRECT_Z              WEIGHT
        1                   0                   0                   0                0.02
        2                   0                 0.9                   0                0.08
        3                 0.8                   0                   0                0.08
        4                   0                 0.7                   0                0.08
        5                 0.6                   0                   0                0.08
        6                   0                 0.5                   0                0.04
        7                 0.9                 0.9                   0                0.04
        8                 0.9                 0.8                   0                0.08
        9                 0.9                 0.7                   0                0.08
       10                 0.9                 0.6                   0                0.08
       11                 0.9                 0.5                   0                0.08
       12                 0.9                 0.4                   0                0.08
       13                 0.9                 0.3                   0                0.08
       14                 0.9                 0.2                   0                0.08
       15                 0.9                 0.1                   0                0.04
       16                 0.8                 0.8                   0                0.04
       17                 0.8                 0.7                   0                0.08
       18                 0.8                 0.6                   0                0.08
       19                 0.8                 0.5                   0                0.08
       20                 0.8                 0.4                   0                0.08
       21                 0.8                 0.3                   0                0.08
       22                 0.2                 0.8                   0                0.04
       23                 0.7                 0.7                   0                0.04
       24                 0.7                 0.6                   0                0.08
       25                 0.7                 0.5                   0                0.08
       26                 0.7                 0.4                   0                0.08
       27                 0.7                 0.3                   0                0.04
       28                 0.6                 0.6                   0                0.04
       29                 0.6                 0.5                   0                0.08
       30                 0.4                 0.6                   0                0.04
       31                 0.5                 0.5                   0                0.02
 DONE : INIT K-POINTS Time : 0.0832608 (SEC)





 >>>>>>>>>>>>>>>>>>>>>>>>>>>>>>>>>>>>>>>>>>>>>>>>>>>>>>>>>>>>>>>>>>>>>>
 |                                                                    |
 | Setup plane waves:                                                 |
 | Use the energy cutoff and the lattice vectors to generate the      |
 | dimensions of FFT grid. The number of FFT grid on each processor   |
 | is 'nrxx'. The number of plane wave basis in reciprocal space is   |
 | different for charege/potential and wave functions. We also set    |
 | the 'sticks' for the parallel of FFT.                              |
 |                                                                    |
 <<<<<<<<<<<<<<<<<<<<<<<<<<<<<<<<<<<<<<<<<<<<<<<<<<<<<<<<<<<<<<<<<<<<<<





 SETUP THE PLANE WAVE BASIS
     energy cutoff for wavefunc (unit:Ry) = 40
            [fft grid for wave functions] = 24, 24, 360
          [fft grid for charge/potential] = 24, 24, 360
                      [fft grid division] = 1, 1, 1
      [big fft grid for charge/potential] = 24, 24, 360
                                     nbxx = 207360
                                     nrxx = 207360

 SETUP PLANE WAVES FOR CHARGE/POTENTIAL
                    number of plane waves = 72445
                         number of sticks = 313

 SETUP PLANE WAVES FOR WAVE FUNCTIONS
                    number of plane waves = 15377
                         number of sticks = 109

 PARALLEL PW FOR CHARGE/POTENTIAL
     PROC   COLUMNS(POT)             PW
        1            313          72445
 --------------- sum -------------------
        1            313          72445

 PARALLEL PW FOR WAVE FUNCTIONS
     PROC     COLUMNS(W)             PW
        1            109          15377
 --------------- sum -------------------
        1            109          15377

 SETUP COORDINATES OF PLANE WAVES
              number of total plane waves = 72445

 SETUP COORDINATES OF PLANE WAVES
                            number of |g| = 3653
                                  max |g| = 228.034
                                  min |g| = 0
 DONE : INIT PLANEWAVE Time : 0.437016 (SEC)

                                     npwx = 9127

 SETUP NONLOCAL PSEUDOPOTENTIALS IN PLANE WAVE BASIS
 Al non-local projectors:
      TOTAL NUMBER OF NONLOCAL PROJECTORS = 0

 nhm = 0, not allocate some matrix. DONE : LOCAL POTENTIAL Time : 1.13249 (SEC)


 Init Non-Local PseudoPotential table : 
 Init Non-Local-Pseudopotential done.
 DONE : NON-LOCAL POTENTIAL Time : 1.13252 (SEC)

                                start_pot = atomic
 DONE : INIT POTENTIAL Time : 1.42011 (SEC)


 Make real space PAO into reciprocal space.
       max mesh points in Pseudopotential = 1601
     dq(describe PAO in reciprocal space) = 0.01
                                    max q = 764

 number of pseudo atomic orbitals for Al is 0
 DONE : INIT BASIS Time : 65.576 (SEC)

 -------------------------------------------
 RELAX CELL : 1
 RELAX IONS : 1 (in total: 1)
 ---------------------------------------------------------
 -------------------------------------------

 PW ALGORITHM --------------- ION=   1  ELEC=   1--------------------------------
  K-point    CG iter num      Time(Sec)
        1       7.900000      22.751100
        2       8.400000      23.760058
        3       8.383333      23.352480
        4       8.633333      24.156143
        5       8.350000      23.056384
        6       8.533333      23.330178
        7       8.350000      23.318821
        8       8.350000      22.753747
        9       8.533333      23.560922
       10       8.583333      23.019603
       11       8.650000      23.641701
       12       8.466667      23.133152
       13       8.416667      22.775434
       14       8.616667      23.466879
       15       8.216667      22.290291
       16       8.183333      22.510857
       17       8.383333      22.933535
       18       8.366667      22.725945
       19       8.766667      23.849854
       20       8.266667      22.635160
       21       8.400000      40.847254
       22       8.300000      51.412581
       23       8.866667      54.208396
       24       8.550000      52.505196
       25       8.433333      51.785872
       26       8.216667      50.616712
       27       8.433333      25.465611
       28       8.466667      23.144236
       29       8.566667      23.464537
       30       8.233333      22.554588
       31       8.416667      23.235169

 Density error is 1.698668066997
                          Error Threshold = 0.010000000000

       Energy                       Rydberg                            eV
   E_KohnSham              -84.814955239489            -1153.966666872002
     E_Harris              -85.170687051525            -1158.806646475564
      E_Fermi               +0.621132798613               +8.450945275826

 PW ALGORITHM --------------- ION=   1  ELEC=   2--------------------------------
  K-point    CG iter num      Time(Sec)
        1       4.216667      12.810205
        2       3.250000      10.053209
        3       3.266667      10.137920
        4       3.083333       9.492877
        5       2.916667       9.175269
        6       2.816667       8.843984
        7       3.450000      10.543738
        8       2.900000       9.083796
        9       2.800000       8.775077
       10       2.716667       8.531816
       11       2.783333       8.617699
       12       2.816667       8.818221
       13       2.750000       8.583572
       14       2.700000       8.507152
       15       2.933333       9.109722
       16       3.150000       9.590363
       17       2.700000      11.919562
       18       2.733333      19.982302
       19       2.583333      19.313718
       20       2.633333      19.431510
       21       2.583333      19.585805
       22       2.683333      19.848603
       23       2.883333      21.375052
       24       2.766667      20.637116
       25       2.683333      20.256440
       26       2.616667      20.126222
       27       2.600000      19.562147
       28       2.950000      21.729486
       29       2.716667      20.342372
       30       2.616667      19.510106
       31       2.850000      21.482329

 Density error is 9.760897057125
                          Error Threshold = 0.002831113445

       Energy                       Rydberg                            eV
   E_KohnSham              -75.775339854482            -1030.976389907440
     E_Harris              -85.242585696993            -1159.784877732410
      E_Fermi               +0.607335021574               +8.263216888354

 PW ALGORITHM --------------- ION=   1  ELEC=   3--------------------------------
  K-point    CG iter num      Time(Sec)
        1      22.200000     131.549379
        2      22.916667     118.099914
        3      23.533333      61.159202
        4      22.900000      61.048784
        5      23.833333      61.761558
        6      21.483333      56.617518
        7      22.933333      61.419657
        8      22.283333      58.688651
        9      24.216667      62.945988
       10      23.083333      60.541836
       11      23.966667      62.093434
       12      23.933333      88.985104
       13      22.666667     111.461969
       14      23.383333      62.032140
       15      22.950000      61.265284
       16      24.083333      62.977965
       17      23.716667      61.968762
       18      22.450000      58.770027
       19      23.233333      59.647678
       20      21.750000      56.814183
       21      23.566667      61.300536
       22      22.766667      58.619295
       23      23.566667      61.804444
       24      24.083333      62.638815
       25      23.583333      61.366762
       26      22.083333      58.094088
       27      22.900000      59.051539
       28      23.916667      62.975872
       29      23.516667      61.653862
       30      21.350000      55.767917
       31      22.250000     109.629236

 Density error is 5539.794482362496
                          Error Threshold = 0.002831113445

       Energy                       Rydberg                            eV
   E_KohnSham              +74.156506688163            +1008.951034734126
     E_Harris             -299.056981629847            -4068.878976847250
      E_Fermi               -2.139509285958              -29.109517212934

 PW ALGORITHM --------------- ION=   1  ELEC=   4--------------------------------
  K-point    CG iter num      Time(Sec)
        1      20.750000     125.357272
        2      21.450000     130.200353
        3      21.733333     135.442659
        4      22.000000     131.835712
        5      22.316667     134.983527
        6      21.333333     136.863862
        7      21.733333     133.574946
        8      21.016667     127.425273
        9      21.766667     134.107274
       10      22.933333     141.044536
       11      22.450000     142.917911
       12      22.983333     142.017673
       13      21.883333     132.847198
       14      22.066667     105.079740
       15      21.333333     104.499963
       16      22.333333      59.622938
       17      21.600000      57.459152
       18      21.850000      59.271927
       19      21.150000      66.043127
       20      21.366667     130.105610
       21      20.866667     127.684359
       22      21.783333     139.214952
       23      22.083333     136.353765
       24      21.716667     132.875074
       25      22.133333     136.526250
       26      21.650000     133.723122
       27      21.900000     132.479486
       28      21.733333     137.738506
       29      22.350000     137.927014
       30      21.650000     137.466268
       31      22.600000     136.843129

 Density error is 9590.364612600564
                          Error Threshold = 0.002831113445

       Energy                       Rydberg                            eV
   E_KohnSham              -50.348966254191             -685.032829466718
     E_Harris             -422.976279588798            -5754.887521248748
      E_Fermi               -4.186900672650              -56.965706108077

 PW ALGORITHM --------------- ION=   1  ELEC=   5--------------------------------
  K-point    CG iter num      Time(Sec)
        1      19.716667     122.315695
        2      19.133333     115.572309
        3      19.300000     116.060086
        4      19.516667     119.498882
        5      18.566667     111.043953
        6      18.350000     105.949900
        7      19.633333     120.198917
        8      19.250000     114.985845
        9      19.266667     115.862430
       10      19.633333     115.131137
       11      19.150000     117.841728
       12      19.016667     113.033122
       13      19.750000     119.837942
       14      19.266667     115.013962
       15      19.500000     119.709159
       16      19.800000     117.756686
       17      18.916667     104.513850
       18      18.366667      82.391087
       19      18.816667      47.851371
       20      18.500000      47.566422
       21      18.800000      47.648575
       22      18.716667      46.653276
       23      19.133333     107.845123
       24      19.800000     116.804339
       25      18.916667      81.827771
       26      18.450000      47.612099
       27      18.183333      47.075086
       28      19.083333      49.136304
       29      19.933333      51.134204
       30      18.716667      49.007948
       31      18.550000      48.340676

 Density error is 1092.243402973368
                          Error Threshold = 0.002831113445

       Energy                       Rydberg                            eV
   E_KohnSham              -32.566070447235             -443.084119551811
     E_Harris             -119.579364354154            -1626.960718434586
      E_Fermi               +0.147683153461               +2.009332385673

 PW ALGORITHM --------------- ION=   1  ELEC=   6--------------------------------
  K-point    CG iter num      Time(Sec)
        1      19.083333      49.752546
        2      19.850000      51.813943
        3      19.750000      50.675261
        4      19.900000      50.770390
        5      18.833333      48.071589
        6      17.583333      45.365130
        7      20.500000      52.382936
        8      19.166667      49.392122
        9      19.466667      49.782985
       10      19.650000      49.870820
       11      18.950000      48.582834
       12      18.750000      47.574983
       13      20.533333      51.942710
       14      20.700000      51.962694
       15      18.900000      48.275212
       16      19.316667      48.907776
       17      19.883333      49.753548
       18      18.050000      45.759061
       19      19.050000      47.813241
       20      19.550000      50.939650
       21      19.200000      49.425397
       22      18.883333      48.866102
       23      19.450000      48.794011
       24      20.383333      84.200822
       25      19.766667     113.384337
       26      19.016667     110.800531
       27      18.366667     103.809303
       28      18.683333     107.831101
       29      18.716667     106.619040
       30      19.450000     114.056643
       31      17.733333     102.953472

 Density error is 4912.055969456662
                          Error Threshold = 0.002831113445

       Energy                       Rydberg                            eV
   E_KohnSham              -23.298258530318             -316.989069489431
     E_Harris             -197.267199175425            -2683.957937286687
      E_Fermi               -0.880822931097              -11.984210791980

 PW ALGORITHM --------------- ION=   1  ELEC=   7--------------------------------
  K-point    CG iter num      Time(Sec)
        1      17.600000     104.988249
        2      17.400000     100.789156
        3      17.266667     102.532187
        4      16.066667      42.637621
        5      16.183333      41.607918
        6      15.433333      40.323624
        7      16.883333      44.420280
        8      16.833333      44.170981
        9      16.383333      42.839925
       10      16.450000      42.500398
       11      16.183333      41.406405
       12      16.166667      42.000862
       13      16.416667      74.454958
       14      16.466667      98.427374
       15      17.016667     101.821273
       16      17.066667     102.008406
       17      16.700000     104.111616
       18      15.283333      91.909963
       19      16.066667      95.774870
       20      15.200000      93.912099
       21      15.816667      94.129697
       22      14.850000      92.069424
       23      16.483333      98.298849
       24      16.433333     101.007838
       25      16.183333      97.406946
       26      15.550000      96.546357
       27      15.316667      90.936210
       28      15.783333      97.826161
       29      16.233333      97.475758
       30      15.200000      95.673508
       31      15.900000      95.925496

 Density error is 1356.393762064036
                          Error Threshold = 0.002831113445

       Energy                       Rydberg                            eV
   E_KohnSham              -75.613149448525            -1028.769676225503
     E_Harris             -103.522417882478            -1408.494753938790
      E_Fermi               +0.427414575450               +5.815273634368

 PW ALGORITHM --------------- ION=   1  ELEC=   8--------------------------------
  K-point    CG iter num      Time(Sec)
        1       9.566667      64.511780
        2       9.733333      60.889725
        3       9.916667      62.020734
        4      10.100000      64.640738
        5       9.983333      62.299671
        6       9.900000      62.657478
        7       9.800000      62.837240
        8       9.666667      61.926315
        9       9.983333      62.234829
       10      10.100000      63.565532
       11       9.433333      60.382679
       12       9.866667      61.752026
       13      10.033333      63.047855
       14       9.583333      61.331421
       15       9.800000      62.579920
       16       9.733333      60.927571
       17       9.633333      59.784170
       18       8.766667      56.183904
       19       9.050000      57.054472
       20       8.150000      51.584516
       21       8.866667      56.177012
       22       8.766667      56.190993
       23       9.783333      59.778586
       24      10.216667      64.700786
       25       9.250000      59.283414
       26       8.350000      52.527032
       27       8.166667      51.926414
       28       9.900000      62.276828
       29       9.866667      63.037888
       30       8.016667      50.860560
       31       9.566667      60.043139

 Density error is 1330.592172959186
                          Error Threshold = 0.002831113445

       Energy                       Rydberg                            eV
   E_KohnSham              -76.331855249843            -1038.548170309084
     E_Harris              -92.234309384538            -1254.912158724597
      E_Fermi               +0.566187462521               +7.703375626451

 PW ALGORITHM --------------- ION=   1  ELEC=   9--------------------------------
  K-point    CG iter num      Time(Sec)
        1       8.650000      55.664992
        2       9.400000      60.792543
        3       8.633333      57.439518
        4       8.616667      55.175398
        5       8.350000      52.495461
        6       7.933333      51.741668
        7       9.216667      60.809358
        8       8.900000      57.376730
        9       9.116667      57.961037
       10       8.616667      55.194797
       11       8.416667      54.990995
       12       8.400000      53.749185
       13       8.450000      53.943902
       14       9.050000      58.023880
       15       9.400000      60.060899
       16       8.900000      57.047867
       17       9.116667      58.366428
       18       8.833333      56.782072
       19       8.733333      54.814052
       20       8.250000      52.508618
       21       9.033333      57.212598
       22       8.950000      56.573939
       23       8.850000      57.361173
       24       8.733333      56.435041
       25       8.800000      55.855028
       26       9.216667      57.550371
       27       8.566667      55.144097
       28       8.466667      55.431639
       29       8.416667      53.721930
       30       8.066667      51.492329
       31       8.116667      52.402510

 Density error is 385.588986708008
                          Error Threshold = 0.002831113445

       Energy                       Rydberg                            eV
   E_KohnSham              -37.530040640272             -510.622398879272
     E_Harris              -87.869490844339            -1195.525755841840
      E_Fermi               +0.593072899434               +8.069170761689

 PW ALGORITHM --------------- ION=   1  ELEC=  10--------------------------------
  K-point    CG iter num      Time(Sec)
        1      26.533333     151.583719
        2      29.000000     168.123726
        3      29.333333     171.434533
        4      29.100000     174.272837
        5      29.050000     168.192274
        6      27.450000     162.713041
        7      27.850000     158.566992
        8      27.933333     158.735920
        9      28.850000     169.963156
       10      29.266667     172.218932
       11      29.716667     167.983595
       12      29.000000     170.742950
       13      28.366667     167.023323
       14      28.466667     169.554442
       15      27.700000     162.170661
       16      29.016667     170.948386
       17      29.166667     173.314076
       18      27.883333     160.762710
       19      29.583333     173.435774
       20      28.283333     164.903677
       21      29.433333     164.408235
       22      27.466667     161.232713
       23      29.500000     172.218600
       24      28.050000     164.515394
       25      29.616667     168.021775
       26      29.200000     171.020448
       27      28.833333     169.335688
       28      29.150000     172.807001
       29      29.766667     173.248373
       30      28.050000     165.702178
       31      27.416667     161.120371

 Density error is 10478.576263886662
                          Error Threshold = 0.002831113445

       Energy                       Rydberg                            eV
   E_KohnSham              -85.137199737775            -1158.351028197839
     E_Harris             -427.356017844822            -5814.476917279260
      E_Fermi               -4.065989506846              -55.320625301312

 PW ALGORITHM --------------- ION=   1  ELEC=  11--------------------------------
  K-point    CG iter num      Time(Sec)
        1      10.300000      63.830752
        2      13.050000      80.627168
        3      12.916667      80.174668
        4      12.250000      74.713203
        5      11.083333      69.978052
        6      11.016667      69.901618
        7      12.516667      75.446705
        8      12.450000      75.847234
        9      12.550000      77.851457
       10      12.750000      77.213384
       11      11.766667      71.744048
       12      11.833333      73.884214
       13      12.633333      77.004652
       14      12.533333      76.033434
       15      12.400000      76.016248
       16      12.866667      78.693711
       17      12.566667      76.124382
       18      12.400000      77.596749
       19      11.550000      72.059708
       20      11.416667      69.760647
       21      12.433333      76.663104
       22      11.966667      74.528082
       23      12.016667      74.774084
       24      12.650000      76.039542
       25      12.183333      76.192108
       26      11.800000      74.807157
       27      12.266667      76.242472
       28      11.466667      70.127038
       29      12.000000      76.463441
       30      11.933333      74.954272
       31      10.883333      66.967808

 Density error is 4434.291797742157
                          Error Threshold = 0.002831113445

       Energy                       Rydberg                            eV
   E_KohnSham              -52.324569398800             -711.912289220118
     E_Harris             -114.879221061982            -1563.011988244565
      E_Fermi               +0.411447064180               +5.598024498226

 PW ALGORITHM --------------- ION=   1  ELEC=  12--------------------------------
  K-point    CG iter num      Time(Sec)
        1      15.016667      91.555864
        2      16.850000     101.258523
        3      15.750000      95.184003
        4      15.950000      96.714029
        5      14.533333      85.742620
        6      13.833333      84.264023
        7      16.766667     101.946793
        8      15.966667      94.451229
        9      14.950000      91.530684
       10      15.433333      92.579744
       11      14.516667      86.337163
       12      14.100000      86.053812
       13      15.150000      90.024742
       14      15.016667      89.903389
       15      15.750000      95.504194
       16      15.183333      89.520441
       17      15.566667      91.932873
       18      14.550000      87.963791
       19      15.000000      87.226719
       20      13.733333      81.816558
       21      15.100000      90.006940
       22      14.716667      87.479232
       23      15.166667      91.868246
       24      14.800000      89.717891
       25      14.916667      88.456536
       26      14.166667      84.479966
       27      13.416667      82.895969
       28      14.883333      89.313514
       29      14.233333      86.808253
       30      13.816667      84.265231
       31      14.250000      85.215913

 Density error is 4639.096542554352
                          Error Threshold = 0.002831113445

       Energy                       Rydberg                            eV
   E_KohnSham              -76.235658321731            -1037.239343956655
     E_Harris             -115.000559526356            -1564.662882746625
      E_Fermi               +0.423974762311               +5.768472575624

 PW ALGORITHM --------------- ION=   1  ELEC=  13--------------------------------
  K-point    CG iter num      Time(Sec)
        1       9.583333      61.900636
        2      10.716667      67.408689
        3      10.816667      36.862125
        4      11.383333      31.146285
        5      10.733333      29.758951
        6      10.150000      28.450107
        7      10.716667      30.613868
        8      11.116667      31.129716
        9      11.483333      31.318446
       10      11.116667      31.336599
       11      10.350000      29.240413
       12      10.783333      29.683705
       13      10.816667      29.761040
       14      11.700000      31.587176
       15      10.783333      29.767461
       16      11.033333      30.258531
       17      11.583333      31.963875
       18      11.233333      30.656184
       19      11.183333      30.885200
       20      10.383333      29.061178
       21      11.166667      30.953577
       22      11.116667      30.227367
       23      11.816667      31.721993
       24      11.300000      30.847082
       25      11.050000      30.342342
       26       9.850000      27.078777
       27       9.433333      25.590006
       28       9.800000      27.312852
       29      10.333333      28.697684
       30       9.916667      27.085272
       31       9.616667      27.086706

 Density error is 1601.854331592316
                          Error Threshold = 0.002831113445

       Energy                       Rydberg                            eV
   E_KohnSham              -72.503952087338             -986.466875906795
     E_Harris              -96.599071357262            -1314.297791967360
      E_Fermi               +0.515570310255               +7.014693939099

 PW ALGORITHM --------------- ION=   1  ELEC=  14--------------------------------
  K-point    CG iter num      Time(Sec)
        1       8.916667      25.547388
        2       9.166667      25.740992
        3       9.733333      26.880827
        4       9.816667      27.038460
        5       9.600000      26.720209
        6       9.983333      27.901920
        7       9.283333      26.627520
        8       9.433333      26.852188
        9       9.750000      27.354174
       10       9.583333      26.877674
       11      10.100000      27.842760
       12      10.283333      28.756148
       13       9.533333      26.660732
       14       9.933333      27.940126
       15       9.166667      25.981338
       16       9.316667      26.776923
       17       9.616667      27.368518
       18       9.533333      26.243732
       19      10.466667      28.460419
       20      10.416667      28.519539
       21      10.283333      28.455771
       22       9.316667      25.768059
       23       9.600000      26.579176
       24       9.633333      26.755616
       25      10.200000      28.215428
       26      10.183333      27.909632
       27      10.100000      27.122794
       28       9.416667      25.729722
       29      10.333333      28.156659
       30      10.516667      28.995115
       31       9.750000      27.260199

 Density error is 214.566550517885
                          Error Threshold = 0.002831113445

       Energy                       Rydberg                            eV
   E_KohnSham              -88.341954257712            -1201.953950360249
     E_Harris              -86.656222870009            -1179.018398190036
      E_Fermi               +0.599428528555               +8.155643532110

 PW ALGORITHM --------------- ION=   1  ELEC=  15--------------------------------
  K-point    CG iter num      Time(Sec)
        1       8.950000      26.394423
        2       9.150000      26.317969
        3       9.716667      27.455979
        4       9.500000      26.520233
        5      10.200000      28.561300
        6       9.500000      27.216148
        7       9.183333      25.959758
        8       8.616667      24.276035
        9       9.250000      26.325455
       10       9.800000      27.943439
       11       9.883333      27.534109
       12       9.933333      27.880759
       13       9.850000      45.339010
       14       9.333333      57.541816
       15       9.016667      57.844250
       16      10.283333      65.771968
       17       9.350000      61.853233
       18       9.600000      61.393381
       19      10.133333      65.060207
       20       9.833333      61.973001
       21      10.150000      66.088461
       22       9.400000      61.909446
       23       9.633333      62.750068
       24       9.383333      60.478713
       25       9.883333      62.150117
       26       9.250000      59.412367
       27      10.066667      67.038133
       28      10.450000      66.219442
       29       9.816667      63.316025
       30       9.433333      60.033590
       31       9.566667      62.334721

 Density error is 2712.395323196329
                          Error Threshold = 0.002831113445

       Energy                       Rydberg                            eV
   E_KohnSham              -64.882964283454             -882.778017385456
     E_Harris              -99.276190244844            -1350.721863061891
      E_Fermi               +0.518423253994               +7.053510230022

 PW ALGORITHM --------------- ION=   1  ELEC=  16--------------------------------
  K-point    CG iter num      Time(Sec)
        1      10.183333      65.096707
        2      10.416667      67.612029
        3      10.800000      69.106855
        4      11.350000      73.537527
        5      11.250000      70.000141
        6      10.966667      68.903897
        7      10.683333      67.361762
        8      10.833333      70.819199
        9      10.033333      64.418146
       10      12.116667      75.508886
       11      11.033333      68.343192
       12      11.100000      71.360935
       13      12.366667      77.244615
       14       9.866667      63.265283
       15      10.283333      66.026002
       16      10.050000      63.950696
       17       9.716667      63.525160
       18      11.183333      69.473916
       19      11.250000      69.541226
       20      10.716667      66.420239
       21      11.050000      71.496845
       22      11.366667      71.768955
       23      11.333333      70.859214
       24      11.183333      69.402083
       25      11.116667      70.854214
       26      10.333333      67.203273
       27      10.383333      65.827199
       28      11.416667      72.464074
       29      10.833333      68.867631
       30      10.583333      68.786547
       31      10.483333      68.149460

 Density error is 479.637182405829
                          Error Threshold = 0.002831113445

       Energy                       Rydberg                            eV
   E_KohnSham              -78.055835240664            -1062.004121422231
     E_Harris              -90.093506410998            -1225.785039989107
      E_Fermi               +0.575485931316               +7.829887784729

 PW ALGORITHM --------------- ION=   1  ELEC=  17--------------------------------
  K-point    CG iter num      Time(Sec)
        1      12.516667      79.343744
        2      12.333333      80.838806
        3      12.366667      79.858646
        4      12.033333      77.724340
        5      12.100000      76.645946
        6      12.166667      80.283878
        7      12.216667      79.221691
        8      12.233333      78.384187
        9      11.766667      74.320542
       10      12.033333      78.015299
       11      11.466667      73.520658
       12      11.900000      75.419955
       13      11.883333      73.941242
       14      12.150000      78.647478
       15      11.850000      78.311522
       16      11.500000      73.794148
       17      11.800000      74.438302
       18      11.616667      75.882623
       19      12.333333      79.006668
       20      11.683333      74.093974
       21      12.250000      75.969638
       22      12.066667      77.631606
       23      12.500000      81.145203
       24      12.216667      76.193402
       25      11.700000      72.916111
       26      11.933333      77.009678
       27      11.833333      76.503571
       28      12.450000      78.033424
       29      11.650000      72.956324
       30      11.366667      73.808582
       31      11.716667      75.872856

 Density error is 5384.978834445305
                          Error Threshold = 0.002831113445

       Energy                       Rydberg                            eV
   E_KohnSham              +84.391577649795            +1148.206319246655
     E_Harris             -124.095462692036            -1688.405388558107
      E_Fermi               +0.248550940287               +3.381709031155

 PW ALGORITHM --------------- ION=   1  ELEC=  18--------------------------------
  K-point    CG iter num      Time(Sec)
        1      27.466667     166.770213
        2      27.050000     158.568619
        3      25.950000     158.205000
        4      27.066667     159.048767
        5      27.550000     169.467696
        6      26.733333     158.509279
        7      26.416667     164.430482
        8      26.183333     155.975304
        9      25.633333     158.683356
       10      26.566667     156.992409
       11      26.583333     166.194614
       12      27.133333     163.089475
       13      27.500000     171.846487
       14      25.616667     153.535684
       15      26.200000     160.622152
       16      27.666667     162.316734
       17      25.433333     152.340581
       18      26.400000     155.323538
       19      26.716667     159.059270
       20      24.716667     147.329048
       21      26.283333     159.174447
       22      26.083333     152.745466
       23      26.083333     152.815069
       24      26.916667     155.292799
       25      26.966667     165.848517
       26      25.500000     149.886454
       27      26.166667     152.146503
       28      27.466667     161.744756
       29      27.350000     160.593831
       30      24.150000     132.311487
       31      26.966667      69.378594

 Density error is 10229.754051852784
                          Error Threshold = 0.002831113445

       Energy                       Rydberg                            eV
   E_KohnSham              -58.295161585663             -793.146363395733
     E_Harris             -333.331156535170            -4535.203049808248
      E_Fermi               -2.564333369919              -34.889545402440

 PW ALGORITHM --------------- ION=   1  ELEC=  19--------------------------------
  K-point    CG iter num      Time(Sec)
        1      14.866667      39.276084
        2      15.533333      41.078076
        3      14.616667      38.588364
        4      14.966667      39.343285
        5      14.583333      37.880864
        6      14.600000      37.743447
        7      14.733333      39.281072
        8      14.050000      37.038833
        9      14.400000      37.681529
       10      15.166667      38.922513
       11      14.350000      37.119359
       12      14.550000      37.844787
       13      15.100000      39.495159
       14      14.483333      38.296127
       15      14.050000      36.982309
       16      14.966667      38.771012
       17      14.983333      38.656206
       18      13.916667      35.989856
       19      15.083333      39.222316
       20      14.366667      37.465578
       21      14.866667      38.480378
       22      14.116667      37.194204
       23      15.433333      40.013844
       24      14.983333      38.930930
       25      15.100000      39.286611
       26      14.733333      38.390011
       27      14.250000      37.415501
       28      14.616667      38.004833
       29      14.766667      38.467999
       30      14.800000      38.192718
       31      14.350000      36.455297

 Density error is 2949.173482559821
                          Error Threshold = 0.002831113445

       Energy                       Rydberg                            eV
   E_KohnSham              -66.643334348086             -906.729080853083
     E_Harris             -110.994575721689            -1510.158676907437
      E_Fermi               +0.370267879747               +5.037752950936

 PW ALGORITHM --------------- ION=   1  ELEC=  20--------------------------------
  K-point    CG iter num      Time(Sec)
        1      11.833333      31.461662
        2      12.033333      32.166813
        3      12.766667      34.033296
        4      12.633333      33.157495
        5      12.633333      33.357439
        6      11.633333      31.272780
        7      11.933333      32.190864
        8      12.366667      33.324293
        9      12.416667      33.437189
       10      12.900000      34.932081
       11      12.566667      33.644189
       12      12.216667      32.571144
       13      12.800000      34.066700
       14      12.883333      35.117654
       15      12.316667      33.515288
       16      12.750000      34.911626
       17      12.650000      34.752882
       18      12.516667      33.933045
       19      12.533333      33.395224
       20      11.783333      31.539995
       21      12.733333      33.450870
       22      12.966667      34.902005
       23      12.916667      54.491156
       24      13.000000      76.803072
       25      12.916667      78.302646
       26      11.516667      70.312577
       27      11.800000      70.779868
       28      12.566667      75.587719
       29      12.850000      78.260654
       30      11.883333      71.925690
       31      11.933333      71.519064

 Density error is 234.191526530784
                          Error Threshold = 0.002831113445

       Energy                       Rydberg                            eV
   E_KohnSham              -62.138362780294             -845.435798203119
     E_Harris              -87.188972388607            -1186.266827249732
      E_Fermi               +0.598812109227               +8.147256716888

 PW ALGORITHM --------------- ION=   1  ELEC=  21--------------------------------
  K-point    CG iter num      Time(Sec)
        1      21.666667     122.799108
        2      21.183333     127.744365
        3      20.616667     120.014016
        4      21.016667     122.972133
        5      21.350000     124.824073
        6      21.100000     122.821334
        7      21.533333     121.966110
        8      20.433333     114.878962
        9      21.216667     122.929820
       10      21.466667     127.464006
       11      22.400000     129.278704
       12      22.000000     128.184472
       13      21.800000     124.396231
       14      21.366667     121.440091
       15      20.600000     119.708283
       16      21.116667     122.551963
       17      20.600000     121.574724
       18      20.600000     121.045436
       19      22.033333     127.000606
       20      20.216667     118.043978
       21      21.433333     122.419400
       22      20.983333     126.461815
       23      21.433333     122.776446
       24      21.900000     128.583766
       25      21.300000     126.221437
       26      20.783333     121.349016
       27      20.600000     119.852050
       28      21.833333     127.248845
       29      22.466667     129.200545
       30      20.166667     117.897653
       31      21.750000     126.425871

 Density error is 9631.536417005978
                          Error Threshold = 0.002831113445

       Energy                       Rydberg                            eV
   E_KohnSham             -113.424482202894            -1543.219250658952
     E_Harris             -290.262462677392            -3949.223407924866
      E_Fermi               -2.007144229913              -27.308598234637

 PW ALGORITHM --------------- ION=   1  ELEC=  22--------------------------------
  K-point    CG iter num      Time(Sec)
        1      13.566667      80.208504
        2      14.850000      85.382235
        3      14.416667      86.130459
        4      14.750000      87.133797
        5      13.950000      84.976912
        6      13.750000      78.795579
        7      14.766667      38.894214
        8      15.200000      40.492118
        9      14.350000      37.992835
       10      14.216667      37.561207
       11      14.850000      38.160401
       12      14.483333      37.388110
       13      14.316667      37.628566
       14      15.500000      40.765399
       15      14.333333      37.808811
       16      14.333333      38.163738
       17      14.933333      39.364256
       18      14.833333      39.206274
       19      14.100000      37.441631
       20      13.916667      36.527438
       21      13.966667      36.737504
       22      15.283333      39.566635
       23      14.916667      39.127843
       24      14.100000      37.043542
       25      13.933333      36.726413
       26      13.266667      35.367944
       27      13.333333      35.352050
       28      13.950000      36.516357
       29      14.583333      38.204195
       30      13.416667      35.246275
       31      13.683333      36.085612

 Density error is 5645.870708615815
                          Error Threshold = 0.002831113445

       Energy                       Rydberg                            eV
   E_KohnSham              -45.429359865042             -618.098150657078
     E_Harris             -148.027201775681            -2014.013403144978
      E_Fermi               -0.099851967070               -1.358555708655

 PW ALGORITHM --------------- ION=   1  ELEC=  23--------------------------------
  K-point    CG iter num      Time(Sec)
        1      13.316667      35.314784
        2      12.966667      34.292449
        3      13.500000      35.747128
        4      13.383333      35.381700
        5      13.883333      36.516579
        6      12.883333      33.901684
        7      13.116667      34.319282
        8      13.783333      36.217574
        9      13.116667      35.373868
       10      13.366667      35.469653
       11      13.450000      35.521601
       12      13.216667      35.074432
       13      13.366667      34.944997
       14      13.000000      33.906943
       15      13.950000      36.533022
       16      13.516667      35.585107
       17      13.283333      34.606426
       18      13.100000      33.903123
       19      13.716667      35.405081
       20      13.466667      34.914270
       21      13.733333      35.664308
       22      13.000000      34.961610
       23      13.033333      34.240636
       24      13.350000      35.845009
       25      13.800000      37.045296
       26      13.133333      35.254321
       27      13.316667      35.409486
       28      13.500000      36.345826
       29      13.050000      35.049720
       30      13.266667      34.591862
       31      13.083333      34.115097

 Density error is 917.372007275065
                          Error Threshold = 0.002831113445

       Energy                       Rydberg                            eV
   E_KohnSham              -84.149412328071            -1144.911491013215
     E_Harris              -91.165581626639            -1240.371371606404
      E_Fermi               +0.570743548768               +7.765364359982

 PW ALGORITHM --------------- ION=   1  ELEC=  24--------------------------------
  K-point    CG iter num      Time(Sec)
        1      16.250000      42.628195
        2      18.566667      48.816019
        3      18.133333      47.113547
        4      18.583333      48.831869
        5      18.183333      47.716510
        6      19.000000      50.383700
        7      18.233333      48.242893
        8      17.383333      44.322189
        9      18.216667      46.834394
       10      19.233333      49.569687
       11      19.233333      49.513406
       12      19.716667      51.147878
       13      19.266667      49.928783
       14      18.833333      48.539446
       15      17.450000      45.249299
       16      18.316667      47.161369
       17      18.616667      48.109178
       18      18.566667      48.706333
       19      19.450000      51.013004
       20      18.416667      48.979108
       21      19.266667      50.596002
       22      18.400000      47.933143
       23      19.016667      49.632167
       24      18.916667      49.986702
       25      19.450000      51.587535
       26      18.416667      48.436735
       27      18.533333      49.060671
       28      18.416667      48.616880
       29      18.783333      49.704905
       30      17.800000      47.773898
       31      19.150000      50.822799

 Density error is 9445.111387471872
                          Error Threshold = 0.002831113445

       Energy                       Rydberg                            eV
   E_KohnSham             +152.248448942895            +2071.446417285449
     E_Harris             -233.364444483781            -3175.086155584093
      E_Fermi               -1.093664123411              -14.880063776570

 PW ALGORITHM --------------- ION=   1  ELEC=  25--------------------------------
  K-point    CG iter num      Time(Sec)
        1      29.316667      73.755974
        2      31.100000      78.534306
        3      30.566667      78.894971
        4      31.216667      80.106045
        5      30.900000      78.411584
        6      29.333333      75.375375
        7      31.866667      80.590322
        8      30.200000      76.578167
        9      30.850000      77.353958
       10      30.766667      79.557238
       11      31.800000      80.650447
       12      31.616667      78.940262
       13      29.816667      76.170277
       14      30.350000      77.133069
       15      30.283333      76.811250
       16      31.166667      78.371393
       17      30.416667      76.193417
       18      29.633333      74.189488
       19      30.866667      78.480908
       20      29.600000      74.631653
       21      30.266667      77.738062
       22      29.883333      75.720498
       23      30.233333      78.058898
       24      30.833333      78.163205
       25      30.733333     101.802698
       26      30.733333     179.143116
       27      30.483333     178.502380
       28      30.450000     175.953064
       29      31.700000     183.317241
       30      29.783333     173.606793
       31      29.633333     145.705412

 Density error is 10606.234938046089
                          Error Threshold = 0.002831113445

       Energy                       Rydberg                            eV
   E_KohnSham             +278.519202301638            +3789.448153716986
     E_Harris             -449.872104065844            -6120.823986544444
      E_Fermi               -4.399567756197              -59.859190221359

 PW ALGORITHM --------------- ION=   1  ELEC=  26--------------------------------
  K-point    CG iter num      Time(Sec)
        1      43.633333     110.623670
        2      42.616667     108.053242
        3      43.200000     107.769978
        4      41.683333     105.165552
        5      41.466667     104.857244
        6      39.416667     101.056729
        7      42.783333     107.596768
        8      41.850000     106.139091
        9      41.750000     241.456794
       10      41.183333     223.462036
       11      41.216667     240.238467
       12      40.900000     224.276460
       13      41.533333     244.216270
       14      42.483333     230.577463
       15      41.266667     162.002712
       16      42.500000     108.603248
       17      42.800000     108.139154
       18      40.683333     104.227864
       19      41.716667     106.165449
       20      41.083333     104.875328
       21      42.133333     107.515495
       22      40.000000     103.556213
       23      42.333333     108.413202
       24      40.633333     104.268159
       25      41.216667     105.425388
       26      40.083333     100.665864
       27      41.233333     105.124268
       28      41.583333     105.624997
       29      41.550000     104.388761
       30      39.650000     101.518763
       31      39.633333     102.269801

 Density error is 11531.814564546228
                          Error Threshold = 0.002831113445

       Energy                       Rydberg                            eV
   E_KohnSham             -163.819142200940            -2228.873775405046
     E_Harris             -833.410405029619           -11339.130280890680
      E_Fermi              -10.433262548249             -141.951819386186

 PW ALGORITHM --------------- ION=   1  ELEC=  27--------------------------------
  K-point    CG iter num      Time(Sec)
        1      16.466667      42.977054
        2      18.533333      47.326276
        3      17.683333      45.053028
        4      18.466667      48.274619
        5      18.466667      48.006996
        6      18.216667      46.085918
        7      18.650000      47.345998
        8      18.650000      46.199240
        9      19.283333      49.144124
       10      18.566667      47.685272
       11      17.683333      45.573273
       12      18.366667      47.170195
       13      18.366667      47.412841
       14      18.900000      49.083034
       15      18.316667      46.422185
       16      18.616667      47.746983
       17      19.250000      49.779829
       18      17.633333      46.672657
       19      17.233333      45.339493
       20      17.783333      46.102127
       21      17.800000      46.042726
       22      18.316667      47.052999
       23      17.866667      46.660432
       24      18.133333      46.683525
       25      17.983333      45.792145
       26      18.366667      47.931878
       27      17.900000      45.343287
       28      17.450000      45.013200
       29      17.816667      45.435812
       30      17.300000      44.435051
       31      17.833333      45.008771

 Density error is 8984.467924009841
                          Error Threshold = 0.002831113445

       Energy                       Rydberg                            eV
   E_KohnSham               -3.012343426578              -40.985034934308
     E_Harris             -239.367192758101            -3256.757735774507
      E_Fermi               -1.246280924971              -16.956521888311

 PW ALGORITHM --------------- ION=   1  ELEC=  28--------------------------------
  K-point    CG iter num      Time(Sec)
        1      18.250000      47.040700
        2      18.150000      46.433944
        3      17.200000      44.867205
        4      16.900000      42.649464
        5      16.533333      41.699070
        6      15.600000      39.599139
        7      17.600000      44.827056
        8      17.250000      44.768750
        9      17.400000      44.626127
       10      16.300000      41.269069
       11      16.450000      40.860578
       12      16.450000      41.691349
       13      16.633333      42.891321
       14      17.050000      43.888703
       15      17.166667      44.244725
       16      17.466667      44.163403
       17      16.483333      41.835358
       18      16.266667      42.087024
       19      16.483333      42.856898
       20      16.033333      41.542719
       21      16.483333      42.166104
       22      16.100000      41.321633
       23      16.433333      41.984886
       24      16.983333      42.893393
       25      16.250000      41.345600
       26      15.816667      40.614030
       27      15.950000      40.535651
       28      16.616667      43.058780
       29      16.633333      43.133737
       30      15.983333      41.784057
       31      16.083333      41.212291

 Density error is 2728.929586673761
                          Error Threshold = 0.002831113445

       Energy                       Rydberg                            eV
   E_KohnSham              -33.592191461153             -457.045212178631
     E_Harris             -107.694576360111            -1465.259882193614
      E_Fermi               +0.473379872445               +6.440663583763

 PW ALGORITHM --------------- ION=   1  ELEC=  29--------------------------------
  K-point    CG iter num      Time(Sec)
        1      32.816667      84.907050
        2      38.616667     102.024694
        3      40.050000     104.658393
        4      38.983333     144.978396
        5      39.033333     231.663411
        6      37.966667     133.736463
        7      38.666667     237.943306
        8      37.300000     221.902931
        9      39.866667     239.711098
       10      40.050000     236.325803
       11      38.166667     239.772038
       12      37.800000     225.522687
       13      39.866667     236.384940
       14      39.700000     235.369616
       15      37.050000     155.845843
       16      39.633333     104.298301
       17      40.300000     105.514353
       18      37.700000      99.257020
       19      40.966667     107.934181
       20      38.850000     220.225019
       21      40.200000     235.156278
       22      37.916667     224.813923
       23      38.116667     223.257415
       24      40.033333     232.845472
       25      40.333333     233.234260
       26      38.350000     212.819189
       27      38.866667     238.115045
       28      38.766667     229.176427
       29      38.916667     243.304045
       30      39.200000     251.365162
       31      37.233333     225.331524

 Density error is 11579.975344571127
                          Error Threshold = 0.002831113445

       Energy                       Rydberg                            eV
   E_KohnSham              +93.422392043443            +1271.076852580685
     E_Harris             -773.521957572725           -10524.306151103310
      E_Fermi               -9.435247941194             -128.373134043012

 PW ALGORITHM --------------- ION=   1  ELEC=  30--------------------------------
  K-point    CG iter num      Time(Sec)
        1      22.366667     134.102027
        2      24.166667     149.279774
        3      24.133333     142.634926
        4      23.416667     138.649957
        5      22.650000     141.141565
        6      21.800000     132.194016
        7      23.983333     148.503584
        8      23.600000     140.453160
        9      22.950000     138.071741
       10      22.800000     135.545966
       11      22.150000     132.400813
       12      22.200000      78.621804
       13      22.750000      58.831963
       14      22.416667      58.643234
       15      23.650000      60.854847
       16      23.100000      59.642457
       17      22.933333      59.889839
       18      22.750000      59.467183
       19      22.733333      59.182060
       20      20.766667      54.072083
       21      22.266667      59.133548
       22      22.483333      59.154204
       23      23.233333      60.944938
       24      22.916667      59.479594
       25      22.266667      58.955096
       26      21.616667      56.122123
       27      21.233333      55.987115
       28      22.200000      57.905470
       29      22.366667      59.218310
       30      20.500000      53.766215
       31      21.500000      56.372473

 Density error is 8837.135441308948
                          Error Threshold = 0.002831113445

       Energy                       Rydberg                            eV
   E_KohnSham             -494.963772487039            -6734.327609399361
     E_Harris             -181.564845284626            -2470.316452359347
      E_Fermi               -0.312076307870               -4.246015997841

 PW ALGORITHM --------------- ION=   1  ELEC=  31--------------------------------
  K-point    CG iter num      Time(Sec)
        1      42.366667     113.224678
        2      43.633333     115.361769
        3      43.900000     116.866338
        4      45.300000     118.806494
        5      45.416667     120.340343
        6      44.366667     118.300063
        7      43.066667     115.669465
        8      43.916667     116.189216
        9      44.983333     117.959786
       10      44.516667     118.020733
       11      46.183333     122.447848
       12      43.733333     115.029115
       13      44.083333     117.177567
       14      44.866667     118.460410
       15      44.316667     116.761230
       16      44.300000     116.899651
       17      44.483333     117.625134
       18      42.433333     112.321904
       19      45.783333     121.068779
       20      43.316667     146.050460
       21      44.816667     119.292910
       22      44.150000     116.623851
       23      44.333333     116.817561
       24      44.233333     118.166491
       25      44.050000     114.266148
       26      45.083333     118.558952
       27      45.250000     121.374714
       28      46.300000     123.878576
       29      44.966667     117.667036
       30      43.550000     116.113117
       31      44.866667     119.945586

 Density error is 12376.588829249369
                          Error Threshold = 0.002831113445

[...]
 [spin1_state]       29    -370.192486       0.040000
 [spin1_state]       30    -368.569650       0.040000
 [spin1_state]       31    -366.158265       0.000000
 [spin1_state]       32    -364.626310       0.000000
 [spin1_state]       33    -363.763415       0.000000
 [spin1_state]       34    -363.314555       0.000000
 [spin1_state]       35    -362.914031       0.000000
 [spin1_state]       36    -361.013021       0.000000
 [spin1_state]       37    -360.398347       0.000000
 [spin1_state]       38    -360.084746       0.000000
 [spin1_state]       39    -359.677519       0.000000
 [spin1_state]       40    -358.649336       0.000000
 [spin1_state]       41    -357.630050       0.000000
 [spin1_state]       42    -356.131418       0.000000
 [spin1_state]       43    -353.436854       0.000000
 [spin1_state]       44    -352.661057       0.000000
 [spin1_state]       45    -351.157168       0.000000
 [spin1_state]       46    -349.916283       0.000000
 [spin1_state]       47    -349.754387       0.000000
 [spin1_state]       48    -348.481926       0.000000
 [spin1_state]       49    -348.135341       0.000000
 [spin1_state]       50    -347.237782       0.000000
 [spin1_state]       51    -346.853142       0.000000
 [spin1_state]       52    -346.005004       0.000000
 [spin1_state]       53    -344.419227       0.000000
 [spin1_state]       54    -343.700162       0.000000
 [spin1_state]       55    -340.176698       0.000000
 [spin1_state]       56    -339.355460       0.000000
 [spin1_state]       57    -337.289435       0.000000
 [spin1_state]       58    -337.168417       0.000000
 [spin1_state]       59    -335.080568       0.000000
 [spin1_state]       60    -334.657342       0.000000

 28/31 kpoint (Cartesian) = 0.848528 0.489898 0.000000 (9014 pws)
 [spin1_state]        1    -428.758000       0.040000
 [spin1_state]        2    -423.670163       0.040000
 [spin1_state]        3    -416.905914       0.040000
 [spin1_state]        4    -414.190389       0.040000
 [spin1_state]        5    -413.008747       0.040000
 [spin1_state]        6    -411.479137       0.040000
 [spin1_state]        7    -404.646408       0.040000
 [spin1_state]        8    -402.849219       0.040000
 [spin1_state]        9    -400.570971       0.040000
 [spin1_state]       10    -399.138947       0.040000
 [spin1_state]       11    -393.797993       0.040000
 [spin1_state]       12    -392.809871       0.040000
 [spin1_state]       13    -391.428516       0.040000
 [spin1_state]       14    -390.429926       0.040000
 [spin1_state]       15    -388.403265       0.040000
 [spin1_state]       16    -386.411394       0.040000
 [spin1_state]       17    -383.769664       0.040000
 [spin1_state]       18    -382.938921       0.040000
 [spin1_state]       19    -382.309062       0.040000
 [spin1_state]       20    -382.171793       0.040000
 [spin1_state]       21    -379.994151       0.040000
 [spin1_state]       22    -378.009045       0.040000
 [spin1_state]       23    -377.659235       0.040000
 [spin1_state]       24    -375.323181       0.040000
 [spin1_state]       25    -373.767541       0.040000
 [spin1_state]       26    -372.406221       0.040000
 [spin1_state]       27    -370.748370       0.040000
 [spin1_state]       28    -369.673647       0.040000
 [spin1_state]       29    -369.602805       0.040000
 [spin1_state]       30    -367.334688       0.040000
 [spin1_state]       31    -366.898879       0.040000
 [spin1_state]       32    -365.323177       0.000000
 [spin1_state]       33    -364.566318       0.000000
 [spin1_state]       34    -362.202923       0.000000
 [spin1_state]       35    -360.965184       0.000000
 [spin1_state]       36    -359.979698       0.000000
 [spin1_state]       37    -358.399664       0.000000
 [spin1_state]       38    -357.464728       0.000000
 [spin1_state]       39    -357.172120       0.000000
 [spin1_state]       40    -355.098999       0.000000
 [spin1_state]       41    -354.787396       0.000000
 [spin1_state]       42    -352.332297       0.000000
 [spin1_state]       43    -352.186367       0.000000
 [spin1_state]       44    -351.576714       0.000000
 [spin1_state]       45    -351.522412       0.000000
 [spin1_state]       46    -349.500944       0.000000
 [spin1_state]       47    -347.945514       0.000000
 [spin1_state]       48    -347.217101       0.000000
 [spin1_state]       49    -346.670279       0.000000
 [spin1_state]       50    -346.274430       0.000000
 [spin1_state]       51    -345.465996       0.000000
 [spin1_state]       52    -344.604629       0.000000
 [spin1_state]       53    -344.494804       0.000000
 [spin1_state]       54    -342.509915       0.000000
 [spin1_state]       55    -342.292450       0.000000
 [spin1_state]       56    -340.000399       0.000000
 [spin1_state]       57    -338.920701       0.000000
 [spin1_state]       58    -338.956623       0.000000
 [spin1_state]       59    -337.435274       0.000000
 [spin1_state]       60    -335.904348       0.000000

 29/31 kpoint (Cartesian) = 0.848528 0.326599 0.000000 (9008 pws)
 [spin1_state]        1    -427.526600       0.080000
 [spin1_state]        2    -424.896517       0.080000
 [spin1_state]        3    -417.442223       0.080000
 [spin1_state]        4    -415.576470       0.080000
 [spin1_state]        5    -412.998097       0.080000
 [spin1_state]        6    -409.602290       0.080000
 [spin1_state]        7    -405.621460       0.080000
 [spin1_state]        8    -403.280761       0.080000
 [spin1_state]        9    -400.759154       0.080000
 [spin1_state]       10    -397.587239       0.080000
 [spin1_state]       11    -394.454245       0.080000
 [spin1_state]       12    -393.162320       0.080000
 [spin1_state]       13    -390.796407       0.080000
 [spin1_state]       14    -389.143050       0.080000
 [spin1_state]       15    -388.115173       0.080000
 [spin1_state]       16    -386.583692       0.080000
 [spin1_state]       17    -385.150734       0.080000
 [spin1_state]       18    -382.559846       0.080000
 [spin1_state]       19    -381.499195       0.080000
 [spin1_state]       20    -380.562708       0.080000
 [spin1_state]       21    -379.105604       0.080000
 [spin1_state]       22    -377.910337       0.080000
 [spin1_state]       23    -376.784952       0.080000
 [spin1_state]       24    -375.319827       0.080000
 [spin1_state]       25    -374.052938       0.080000
 [spin1_state]       26    -372.534819       0.080000
 [spin1_state]       27    -371.214488       0.080000
 [spin1_state]       28    -370.240641       0.080000
 [spin1_state]       29    -368.567108       0.080000
 [spin1_state]       30    -367.689458       0.080000
 [spin1_state]       31    -366.370524       0.002187
 [spin1_state]       32    -365.081573       0.000000
 [spin1_state]       33    -364.708129       0.000000
 [spin1_state]       34    -362.186419       0.000000
 [spin1_state]       35    -361.827141       0.000000
 [spin1_state]       36    -359.943719       0.000000
 [spin1_state]       37    -359.113132       0.000000
 [spin1_state]       38    -358.481433       0.000000
 [spin1_state]       39    -357.258307       0.000000
 [spin1_state]       40    -356.515039       0.000000
 [spin1_state]       41    -355.389044       0.000000
 [spin1_state]       42    -354.574136       0.000000
 [spin1_state]       43    -354.196936       0.000000
 [spin1_state]       44    -351.923283       0.000000
 [spin1_state]       45    -351.872581       0.000000
 [spin1_state]       46    -349.222971       0.000000
 [spin1_state]       47    -349.199265       0.000000
 [spin1_state]       48    -347.156339       0.000000
 [spin1_state]       49    -346.425087       0.000000
 [spin1_state]       50    -346.476578       0.000000
 [spin1_state]       51    -344.584151       0.000000
 [spin1_state]       52    -343.783063       0.000000
 [spin1_state]       53    -343.089105       0.000000
 [spin1_state]       54    -343.147167       0.000000
 [spin1_state]       55    -341.289288       0.000000
 [spin1_state]       56    -341.256970       0.000000
 [spin1_state]       57    -340.362657       0.000000
 [spin1_state]       58    -339.281121       0.000000
 [spin1_state]       59    -338.884389       0.000000
 [spin1_state]       60    -336.283404       0.000000

 30/31 kpoint (Cartesian) = 0.565685 0.653197 0.000000 (8994 pws)
 [spin1_state]        1    -426.089393       0.040000
 [spin1_state]        2    -425.350989       0.040000
 [spin1_state]        3    -420.606863       0.040000
 [spin1_state]        4    -414.242376       0.040000
 [spin1_state]        5    -413.375597       0.040000
 [spin1_state]        6    -408.759263       0.040000
 [spin1_state]        7    -405.398338       0.040000
 [spin1_state]        8    -401.886684       0.040000
 [spin1_state]        9    -401.122586       0.040000
 [spin1_state]       10    -396.698472       0.040000
 [spin1_state]       11    -395.538265       0.040000
 [spin1_state]       12    -394.803643       0.040000
 [spin1_state]       13    -393.034497       0.040000
 [spin1_state]       14    -389.180731       0.040000
 [spin1_state]       15    -388.347820       0.040000
 [spin1_state]       16    -384.471309       0.040000
 [spin1_state]       17    -383.436697       0.040000
 [spin1_state]       18    -382.648811       0.040000
 [spin1_state]       19    -380.848592       0.040000
 [spin1_state]       20    -380.121224       0.040000
 [spin1_state]       21    -379.318275       0.040000
 [spin1_state]       22    -376.309979       0.040000
 [spin1_state]       23    -375.749169       0.040000
 [spin1_state]       24    -374.492526       0.040000
 [spin1_state]       25    -374.156074       0.040000
 [spin1_state]       26    -371.351023       0.040000
 [spin1_state]       27    -370.962733       0.040000
 [spin1_state]       28    -370.475746       0.040000
 [spin1_state]       29    -368.807996       0.040000
 [spin1_state]       30    -367.940853       0.040000
 [spin1_state]       31    -366.069387       0.000000
 [spin1_state]       32    -364.937458       0.000000
 [spin1_state]       33    -364.192272       0.000000
 [spin1_state]       34    -363.011367       0.000000
 [spin1_state]       35    -362.626281       0.000000
 [spin1_state]       36    -362.357567       0.000000
 [spin1_state]       37    -361.511717       0.000000
 [spin1_state]       38    -358.746133       0.000000
 [spin1_state]       39    -357.900967       0.000000
 [spin1_state]       40    -357.726106       0.000000
 [spin1_state]       41    -355.919546       0.000000
 [spin1_state]       42    -355.509186       0.000000
 [spin1_state]       43    -353.851519       0.000000
 [spin1_state]       44    -352.818713       0.000000
 [spin1_state]       45    -351.815430       0.000000
 [spin1_state]       46    -350.912120       0.000000
 [spin1_state]       47    -350.401752       0.000000
 [spin1_state]       48    -349.078337       0.000000
 [spin1_state]       49    -348.282323       0.000000
 [spin1_state]       50    -345.514048       0.000000
 [spin1_state]       51    -344.787653       0.000000
 [spin1_state]       52    -344.634633       0.000000
 [spin1_state]       53    -342.830773       0.000000
 [spin1_state]       54    -342.294157       0.000000
 [spin1_state]       55    -341.314303       0.000000
 [spin1_state]       56    -340.788650       0.000000
 [spin1_state]       57    -337.836556       0.000000
 [spin1_state]       58    -337.028539       0.000000
 [spin1_state]       59    -335.497850       0.000000
 [spin1_state]       60    -331.968840       0.000000

 31/31 kpoint (Cartesian) = 0.707107 0.408248 0.000000 (9020 pws)
 [spin1_state]        1    -426.844138       0.020000
 [spin1_state]        2    -426.083109       0.020000
 [spin1_state]        3    -415.029581       0.020000
 [spin1_state]        4    -414.526115       0.020000
 [spin1_state]        5    -414.430434       0.020000
 [spin1_state]        6    -412.591316       0.020000
 [spin1_state]        7    -403.113616       0.020000
 [spin1_state]        8    -402.947362       0.020000
 [spin1_state]        9    -402.024961       0.020000
 [spin1_state]       10    -400.056853       0.020000
 [spin1_state]       11    -390.911697       0.020000
 [spin1_state]       12    -390.368396       0.020000
 [spin1_state]       13    -389.811726       0.020000
 [spin1_state]       14    -389.326044       0.020000
 [spin1_state]       15    -388.540021       0.020000
 [spin1_state]       16    -388.402018       0.020000
 [spin1_state]       17    -387.151294       0.020000
 [spin1_state]       18    -386.348230       0.020000
 [spin1_state]       19    -378.324654       0.020000
 [spin1_state]       20    -377.881985       0.020000
 [spin1_state]       21    -377.886299       0.020000
 [spin1_state]       22    -376.988690       0.020000
 [spin1_state]       23    -376.882631       0.020000
 [spin1_state]       24    -376.273807       0.020000
 [spin1_state]       25    -375.530828       0.020000
 [spin1_state]       26    -375.571643       0.020000
 [spin1_state]       27    -374.422614       0.020000
 [spin1_state]       28    -371.340200       0.020000
 [spin1_state]       29    -365.576940       0.000000
 [spin1_state]       30    -365.056110       0.000000
 [spin1_state]       31    -364.660790       0.000000
 [spin1_state]       32    -364.451054       0.000000
 [spin1_state]       33    -364.509980       0.000000
 [spin1_state]       34    -363.658191       0.000000
 [spin1_state]       35    -363.484257       0.000000
 [spin1_state]       36    -363.032198       0.000000
 [spin1_state]       37    -361.985569       0.000000
 [spin1_state]       38    -359.795349       0.000000
 [spin1_state]       39    -352.537778       0.000000
 [spin1_state]       40    -352.265045       0.000000
 [spin1_state]       41    -351.954913       0.000000
 [spin1_state]       42    -351.818468       0.000000
 [spin1_state]       43    -351.624667       0.000000
 [spin1_state]       44    -351.056955       0.000000
 [spin1_state]       45    -350.921368       0.000000
 [spin1_state]       46    -350.361427       0.000000
 [spin1_state]       47    -349.799472       0.000000
 [spin1_state]       48    -349.666109       0.000000
 [spin1_state]       49    -349.597457       0.000000
 [spin1_state]       50    -349.182041       0.000000
 [spin1_state]       51    -348.860977       0.000000
 [spin1_state]       52    -347.717779       0.000000
 [spin1_state]       53    -339.059137       0.000000
 [spin1_state]       54    -338.636339       0.000000
 [spin1_state]       55    -338.659724       0.000000
 [spin1_state]       56    -338.576480       0.000000
 [spin1_state]       57    -338.640946       0.000000
 [spin1_state]       58    -338.417080       0.000000
 [spin1_state]       59    -337.954030       0.000000
 [spin1_state]       60    -337.270408       0.000000




 ><><><><><><><><><><><><><><><><><><><><><><

    TOTAL-FORCE (eV/Angstrom)

 ><><><><><><><><><><><><><><><><><><><><><><

     atom              x              y              z
      Al1      +0.003501      +0.002021     +17.799665
      Al2      +0.006491      +0.003748     -29.231391
      Al3      +0.002628      +0.001517     -57.472811
      Al4      -0.014240      -0.008221     -45.492167
      Al5      -0.159360      -0.092006    -115.010899
      Al6      +0.158948      +0.091769     -64.820057
      Al7      -0.007705      -0.004448    -175.715080
      Al8      +0.000487      +0.000281    -102.828253
      Al9      +0.008878      +0.005126    -210.545120
     Al10      -0.001920      -0.001109    -114.121884
     Al11      +0.000001      +0.000001     +25.414008
     Al12      -0.001468      -0.000848    +189.575600
     Al13      -0.002031      -0.001173    +162.916791
     Al14      +0.159445      +0.092056    +114.711506
     Al15      -0.138357      -0.079881    +153.268784
     Al16      -0.012985      -0.007497     +49.303677
     Al17      +0.004642      +0.002680    +123.831424
     Al18      -0.000252      -0.000145     +12.824518
     Al19      -0.008206      -0.004738     +81.260508
     Al20      +0.001502      +0.000867     -15.668819


 ><><><><><><><><><><><><><><><><><><><><><><

 TOTAL-STRESS (KBAR)

 ><><><><><><><><><><><><><><><><><><><><><><

   +12522.768334      -7.263468      +1.877062
       -7.263468  +12531.155465      +1.083722
       +1.877062      +1.083722    -429.711797

 Ion relaxation is not converged yet (threshold is +0.000001)

 DIRECT COORDINATES
         atom                   x                   y                   z                 mag
     taud_Al1           +0.000000           +0.000000           +0.000207           +0.000000
     taud_Al2           +0.333333           +0.333333           +0.049661           +0.000000
     taud_Al3           +0.666667           +0.666667           +0.099333           +0.000000
     taud_Al4           +0.000000           +0.000000           +0.149472           +0.000000
     taud_Al5           +0.333333           +0.333333           +0.198665           +0.000000
     taud_Al6           +0.933333           +0.933333           +0.249248           +0.000000
     taud_Al7           +0.266667           +0.266667           +0.297961           +0.000000
     taud_Al8           +0.600000           +0.600000           +0.348807           +0.000000
     taud_Al9           +0.933333           +0.933333           +0.397557           +0.000000
    taud_Al10           +0.266667           +0.266667           +0.448676           +0.000000
    taud_Al11           +0.933333           +0.933333           +0.500295           +0.000000
    taud_Al12           +0.600000           +0.600000           +0.552200           +0.000000
    taud_Al13           +0.266667           +0.266667           +0.601891           +0.000000
    taud_Al14           +0.933333           +0.933333           +0.651331           +0.000000
    taud_Al15           +0.333333           +0.333333           +0.701779           +0.000000
    taud_Al16           +0.000000           +0.000000           +0.750572           +0.000000
    taud_Al17           +0.666667           +0.666667           +0.801437           +0.000000
    taud_Al18           +0.333333           +0.333333           +0.850149           +0.000000
    taud_Al19           +0.000000           +0.000000           +0.900943           +0.000000
    taud_Al20           +0.666667           +0.666667           +0.949818           +0.000000

 Setup the structure factor in plane wave basis.
 Setup the extrapolated charge.
 Setup the structure factor in plane wave basis.
 Setup the Vl+Vh+Vxc according to new structure factor and new charge.
 Setup the new wave functions?
 -------------------------------------------
 RELAX CELL : +1
 RELAX IONS : +2 (in total: +2)
 ---------------------------------------------------------
 -------------------------------------------

 PW ALGORITHM --------------- ION=  +2  ELEC=  +1--------------------------------
  K-point    CG iter num      Time(Sec)
       +1     +40.750000    +244.210832
       +2     +47.966667    +282.178572
       +3     +48.883333    +288.845386
       +4     +49.166667    +291.017666
       +5     +47.283333    +278.732453
       +6     +41.316667    +249.686711
       +7     +47.683333    +302.516543
       +8     +47.533333    +286.354986
       +9     +47.600000    +284.004433
      +10     +47.783333    +282.769558
      +11     +48.000000    +282.341272
      +12     +48.100000    +283.580620
      +13     +47.783333    +282.326277
      +14     +46.450000    +272.494638
      +15     +48.183333    +290.445887
      +16     +49.166667    +299.562706
      +17     +46.400000    +292.209775
      +18     +46.033333    +276.174858
      +19     +47.833333    +282.242217
      +20     +46.250000    +273.650024
      +21     +47.216667    +276.369250
      +22     +44.633333    +261.820833
