 *********************************************************
 *                                                       *
 *                  WELCOME TO ABACUS v3.0               *
 *                                                       *
 *            'Atomic-orbital Based Ab-initio            *
 *                  Computation at UStc'                 *
 *                                                       *
 *          Website: http://abacus.ustc.edu.cn/          *
 *                                                       *
 *********************************************************
 Mon Apr 17 14:43:51 2023
 MAKE THE DIR         : OUT.blpstest/
Notice: symbol 'al_locpsp' is not an element symbol!!!! set the covalent radius to be 0.
 UNIFORM GRID DIM     : 27 * 27 * 27
 UNIFORM GRID DIM(BIG): 27 * 27 * 27
func,idXC_GGA_X_PBE 101
func,idXC_GGA_C_PBE 130
 DONE(0.107289   SEC) : SETUP UNITCELL
 DONE(0.165451   SEC) : SYMMETRY
 DONE(0.537603   SEC) : INIT K-POINTS
 ---------------------------------------------------------
 Self-consistent calculations for electrons
 ---------------------------------------------------------
 SPIN    KPOINTS         PROCESSORS  
 1       256             1           
 ---------------------------------------------------------
 Use plane wave basis
 ---------------------------------------------------------
 ELEMENT NATOM       XC          
 Al      1           
 ---------------------------------------------------------
 Initial plane wave basis and FFT box
 ---------------------------------------------------------
 DONE(0.538602   SEC) : INIT BASIS
 DONE(0.538628   SEC) : INIT PHI
 DONE(0.580446   SEC) : LOCAL POTENTIAL
 DONE(0.580483   SEC) : NON-LOCAL POTENTIAL
 START CHARGE      : atomic
 DONE(0.65664    SEC) : INIT POTENTIAL
 DONE(0.656696   SEC) : INIT OPTIMIZATION
 DONE(0.657574   SEC) : INIT KEDF
======================== Running OFDFT ========================
Iter        Etot(Ha)          Theta      PotNorm     deltaE(Ha)
0     -2.020011978547e+00   2.000e-01   2.058e-01   -2.020e+00  
1     -2.032692182913e+00   5.665e-02   2.747e-01   -1.268e-02  
2     -2.032826349444e+00   3.277e-03   2.760e-01   -1.342e-04  
3     -2.100405484658e+00   6.882e-02   6.937e-02   -6.758e-02  
4     -2.101432862578e+00   7.761e-03   4.670e-03   -1.027e-03  
5     -2.101440227608e+00   8.426e-04   4.216e-04   -7.365e-06  
6     -2.101440314382e+00   1.442e-04   8.016e-05   -8.677e-08  
7     -2.101440315631e+00   1.204e-05   7.478e-06   -1.250e-09  

  |CLASS_NAME---------|NAME---------------|TIME(Sec)-----|CALLS----|AVG------|PER%-------
                       total               15.344         21        0.73      1e+02     %
   Driver              driver_line         15.335         1         15        1e+02     %
   PW_Basis            recip2real          2.5912         1970      0.0013    17        %
   PW_Basis            gathers_scatterp    0.19636        1970      0.0001    1.3       %
   Potential           update_from_charge  8.5232         219       0.039     56        %
   Potential           cal_v_eff           8.5209         219       0.039     56        %
   H_Hartree_pw        v_hartree           0.65602        219       0.003     4.3       %
   PW_Basis            real2recip          3.1823         2406      0.0013    21        %
   PW_Basis            gatherp_scatters    0.21385        2406      8.9e-05   1.4       %
   PotXC               cal_v_eff           7.8353         219       0.036     51        %
   XC_Functional       v_xc                7.3604         110       0.067     48        %
   XC_Functional       v_xc_libxc          7.8015         219       0.036     51        %
   ESolver_OF          Run                 14.686         1         15        96        %
   KEDF_TF             tf_potential        1.1163         218       0.0051    7.3       %
   KEDF_WT             wt_potential        4.0893         218       0.019     27        %
   KEDF_vW             vw_potential        0.69435        218       0.0032    4.5       %
 ----------------------------------------------------------------------------------------

 START  Time  : Mon Apr 17 14:43:51 2023
 FINISH Time  : Mon Apr 17 14:44:06 2023
 TOTAL  Time  : 15
 SEE INFORMATION IN : OUT.blpstest/
