 *********************************************************
 *                                                       *
 *                  WELCOME TO ABACUS v3.0               *
 *                                                       *
 *            'Atomic-orbital Based Ab-initio            *
 *                  Computation at UStc'                 *
 *                                                       *
 *          Website: http://abacus.ustc.edu.cn/          *
 *                                                       *
 *********************************************************
 Wed Apr 26 09:45:17 2023
 MAKE THE DIR         : OUT.oftest/
Notice: symbol 'Li_locpsp' is not an element symbol!!!! set the covalent radius to be 0.
 UNIFORM GRID DIM     : 45 * 45 * 45
 UNIFORM GRID DIM(BIG): 45 * 45 * 45
func,idXC_GGA_X_PBE 101
func,idXC_GGA_C_PBE 130
 DONE(0.311523   SEC) : SETUP UNITCELL
 DONE(0.36978    SEC) : SYMMETRY
 DONE(0.370069   SEC) : INIT K-POINTS
 ---------------------------------------------------------
 Self-consistent calculations for electrons
 ---------------------------------------------------------
 SPIN    KPOINTS         PROCESSORS  
 1       1               1           
 ---------------------------------------------------------
 Use plane wave basis
 ---------------------------------------------------------
 ELEMENT NATOM       XC          
 Li      2           
 ---------------------------------------------------------
 Initial plane wave basis and FFT box
 ---------------------------------------------------------
 DONE(0.429348   SEC) : INIT BASIS
 DONE(0.429385   SEC) : INIT PHI
 DONE(0.552834   SEC) : LOCAL POTENTIAL
 DONE(0.552879   SEC) : NON-LOCAL POTENTIAL
 START CHARGE      : atomic
 DONE(0.850939   SEC) : INIT POTENTIAL
 DONE(0.85143    SEC) : INIT OPTIMIZATION
Default type: double
nnode = 10
nlayer = 3
feg_net_F = 0.540933
 DONE(0.946028   SEC) : INIT KEDF
======================== Running OFDFT ========================
Iter        Etot(Ha)          Theta      PotNorm     deltaE(Ha)
0     -4.992169495311e-01   2.000e-01   5.615e-02   -4.992e-01  
1     -5.137825819463e-01   5.803e-02   1.419e-02   -1.457e-02  
2     -5.138828392964e-01   2.833e-03   7.588e-03   -1.003e-04  
3     -5.140268095996e-01   1.289e-02   1.755e-03   -1.440e-04  
4     -5.140283907745e-01   4.869e-04   1.618e-04   -1.581e-06  
5     -5.140284074510e-01   4.876e-05   9.329e-05   -1.668e-08  
6     -5.140284132664e-01   2.869e-05   6.935e-05   -5.815e-09  

  |CLASS_NAME---------|NAME---------------|TIME(Sec)-----|CALLS----|AVG------|PER%-------
                       total               529.56         21        25        1e+02     %
   Driver              driver_line         529.55         1         5.3e+02   1e+02     %
   PW_Basis            setuptransform      0.27077        1         0.27      0.051     %
   ppcell_vl           init_vloc           0.12327        1         0.12      0.023     %
   Charge              atomic_rho          0.13755        1         0.14      0.026     %
   PW_Basis            recip2real          14.064         3788      0.0037    2.7       %
   PW_Basis            gathers_scatterp    1.0773         3788      0.00028   0.2       %
   Potential           init_pot            0.15414        1         0.15      0.029     %
   Potential           update_from_charge  19.759         190       0.1       3.7       %
   Potential           cal_v_eff           19.752         190       0.1       3.7       %
   H_Hartree_pw        v_hartree           1.6227         190       0.0085    0.31      %
   PW_Basis            real2recip          13.849         3788      0.0037    2.6       %
   PW_Basis            gatherp_scatters    0.73261        3788      0.00019   0.14      %
   PotXC               cal_v_eff           18.069         190       0.095     3.4       %
   XC_Functional       v_xc                263.94         95        2.8       50        %
   XC_Functional       v_xc_libxc          18.042         190       0.095     3.4       %
   ESolver_OF          Run                 528.61         1         5.3e+02   1e+02     %
   KEDF_vW             vw_potential        1.5761         189       0.0083    0.3       %
 ----------------------------------------------------------------------------------------

 START  Time  : Wed Apr 26 09:45:17 2023
 FINISH Time  : Wed Apr 26 09:54:07 2023
 TOTAL  Time  : 5.3e+02
 SEE INFORMATION IN : OUT.oftest/
