 *********************************************************
 *                                                       *
 *                  WELCOME TO ABACUS v3.0               *
 *                                                       *
 *            'Atomic-orbital Based Ab-initio            *
 *                  Computation at UStc'                 *
 *                                                       *
 *          Website: http://abacus.ustc.edu.cn/          *
 *                                                       *
 *********************************************************
 Mon Apr 17 14:42:53 2023
 MAKE THE DIR         : OUT.blpstest/
Notice: symbol 'al_locpsp' is not an element symbol!!!! set the covalent radius to be 0.
 UNIFORM GRID DIM     : 27 * 27 * 27
 UNIFORM GRID DIM(BIG): 27 * 27 * 27
func,idXC_GGA_X_PBE 101
func,idXC_GGA_C_PBE 130
 DONE(0.111111   SEC) : SETUP UNITCELL
 DONE(0.210173   SEC) : SYMMETRY
 DONE(0.974415   SEC) : INIT K-POINTS
 ---------------------------------------------------------
 Self-consistent calculations for electrons
 ---------------------------------------------------------
 SPIN    KPOINTS         PROCESSORS  
 1       256             1           
 ---------------------------------------------------------
 Use plane wave basis
 ---------------------------------------------------------
 ELEMENT NATOM       XC          
 Al      1           
 ---------------------------------------------------------
 Initial plane wave basis and FFT box
 ---------------------------------------------------------
 DONE(0.97548    SEC) : INIT BASIS
 DONE(0.975512   SEC) : INIT PHI
 DONE(1.0597     SEC) : LOCAL POTENTIAL
 DONE(1.05974    SEC) : NON-LOCAL POTENTIAL
 START CHARGE      : atomic
 DONE(1.20394    SEC) : INIT POTENTIAL
 DONE(1.20402    SEC) : INIT OPTIMIZATION
 DONE(1.20502    SEC) : INIT KEDF
======================== Running OFDFT ========================
Iter        Etot(Ha)          Theta      PotNorm     deltaE(Ha)
0     -2.021704500763e+00   2.000e-01   1.990e-01   -2.022e+00  
1     -2.023489805161e+00   1.996e-02   2.137e-01   -1.785e-03  
2     -2.096457083671e+00   7.799e-02   1.528e-01   -7.297e-02  
3     -2.100145198792e+00   1.481e-02   4.148e-02   -3.688e-03  
4     -2.100791009775e+00   7.743e-03   3.110e-02   -6.458e-04  
5     -2.101147686036e+00   9.645e-03   2.094e-03   -3.567e-04  
6     -2.101149379270e+00   4.468e-04   2.031e-04   -1.693e-06  
7     -2.101149404315e+00   8.415e-05   2.468e-05   -2.505e-08  
8     -2.101149404433e+00   3.133e-06   7.026e-06   -1.176e-10  

  |CLASS_NAME---------|NAME---------------|TIME(Sec)-----|CALLS----|AVG------|PER%-------
                       total               16.34          21        0.78      1e+02     %
   Driver              driver_line         16.332         1         16        1e+02     %
   PW_Basis            recip2real          2.7699         1835      0.0015    17        %
   PW_Basis            gathers_scatterp    0.19244        1835      0.0001    1.2       %
   Potential           update_from_charge  8.8965         204       0.044     54        %
   Potential           cal_v_eff           8.8946         204       0.044     54        %
   H_Hartree_pw        v_hartree           0.74689        204       0.0037    4.6       %
   PW_Basis            real2recip          3.2845         2241      0.0015    20        %
   PW_Basis            gatherp_scatters    0.17451        2241      7.8e-05   1.1       %
   PotXC               cal_v_eff           8.0875         204       0.04      49        %
   XC_Functional       v_xc                7.5915         102       0.074     46        %
   XC_Functional       v_xc_libxc          8.0593         204       0.04      49        %
   ESolver_OF          Run                 15.134         1         15        93        %
   KEDF_TF             tf_potential        1.1341         203       0.0056    6.9       %
   KEDF_WT             wt_potential        4.1821         203       0.021     26        %
   KEDF_vW             vw_potential        0.6827         203       0.0034    4.2       %
 ----------------------------------------------------------------------------------------

 START  Time  : Mon Apr 17 14:42:53 2023
 FINISH Time  : Mon Apr 17 14:43:09 2023
 TOTAL  Time  : 16
 SEE INFORMATION IN : OUT.blpstest/
