 *********************************************************
 *                                                       *
 *                  WELCOME TO ABACUS v3.0               *
 *                                                       *
 *            'Atomic-orbital Based Ab-initio            *
 *                  Computation at UStc'                 *
 *                                                       *
 *          Website: http://abacus.ustc.edu.cn/          *
 *                                                       *
 *********************************************************
 Wed Dec 28 12:38:33 2022
 MAKE THE DIR         : OUT.blpstest/
Notice: symbol 'mg_locpsp' is not an element symbol!!!! set the covalent radius to be 0.
 UNIFORM GRID DIM     : 32 * 32 * 32
 UNIFORM GRID DIM(BIG): 32 * 32 * 32
func,idXC_GGA_X_PBE 101
func,idXC_GGA_C_PBE 130
 DONE(0.159689   SEC) : SETUP UNITCELL
 DONE(0.214072   SEC) : SYMMETRY
 DONE(0.557054   SEC) : INIT K-POINTS
 ---------------------------------------------------------
 Self-consistent calculations for electrons
 ---------------------------------------------------------
 SPIN    KPOINTS         PROCESSORS  
 1       256             1           
 ---------------------------------------------------------
 Use plane wave basis
 ---------------------------------------------------------
 ELEMENT NATOM       XC          
 Mg      1           
 ---------------------------------------------------------
 Initial plane wave basis and FFT box
 ---------------------------------------------------------
 DONE(0.685024   SEC) : INIT PLANEWAVE
 MEMORY FOR PSI (MB)  : 34.3125
 DONE(0.700744   SEC) : LOCAL POTENTIAL
 DONE(0.700814   SEC) : NON-LOCAL POTENTIAL
 DONE(0.700924   SEC) : INIT BASIS
 START CHARGE      : atomic
 DONE(0.773615   SEC) : INIT SCF
 ITER   ETOT(eV)       EDIFF(eV)      DRHO       TIME(s)    
 CG1    -2.390277e+01  0.000000e+00   4.002e-02  2.797e+01  
 CG2    -2.413484e+01  -2.320760e-01  3.856e-03  1.129e+01  
 CG3    -2.413866e+01  -3.814381e-03  6.290e-06  1.383e+01  
 CG4    -2.413896e+01  -3.028595e-04  7.696e-06  2.158e+01  
 CG5    -2.413898e+01  -2.259320e-05  3.571e-07  1.053e+01  
 CG6    -2.413899e+01  -1.860499e-06  1.390e-06  1.399e+01  
 CG7    -2.413899e+01  -1.436726e-06  9.110e-07  1.015e+01  
 CG8    -2.413899e+01  -7.107587e-08  1.327e-10  1.009e+01  

  |CLASS_NAME---------|NAME---------------|TIME(Sec)-----|CALLS----|AVG------|PER%-------
                       total               120.24         17        7.1       1e+02     %
   Driver              driver_line         120.23         1         1.2e+02   1e+02     %
   PW_Basis            setuptransform      0.13936        1         0.14      0.12      %
   PW_Basis_K          setuptransform      0.10301        1         0.1       0.086     %
   ESolver_KS_PW       Run                 119.52         1         1.2e+02   99        %
   Potential           update_from_charge  0.50682        9         0.056     0.42      %
   Potential           cal_v_eff           0.50557        9         0.056     0.42      %
   PW_Basis            real2recip          0.11879        88        0.0013    0.099     %
   PotXC               cal_v_eff           0.46619        9         0.052     0.39      %
   XC_Functional       v_xc                62.478         5         12        52        %
   XC_Functional       v_xc_libxc          0.45893        9         0.051     0.38      %
   HSolverPW           solve               118.85         8         15        99        %
   DiagoIterAssist     diagH_subspace      25.772         2048      0.013     21        %
   OperatorPW          hPsi                107.71         42933     0.0025    90        %
   Operator            EkineticPW          0.62769        42933     1.5e-05   0.52      %
   Operator            VeffPW              106.68         42933     0.0025    89        %
   PW_Basis_K          recip2real          51.893         55421     0.00094   43        %
   PW_Basis_K          gathers_scatterp    6.1846         55421     0.00011   5.1       %
   PW_Basis_K          real2recip          43.142         53173     0.00081   36        %
   PW_Basis_K          gatherp_scatters    3.0815         53173     5.8e-05   2.6       %
   DiagoIterAssist     LAPACK_subspace     0.2762         2048      0.00013   0.23      %
   DiagoCG             diag_once           89.458         2048      0.044     74        %
   ElecStatePW         psiToRho            2.4629         8         0.31      2         %
 ----------------------------------------------------------------------------------------

 START  Time  : Wed Dec 28 12:38:33 2022
 FINISH Time  : Wed Dec 28 12:40:34 2022
 TOTAL  Time  : 1.2e+02
 SEE INFORMATION IN : OUT.blpstest/
