                                                                                     
                             WELCOME TO ABACUS                                       
                                                                                     
               'Atomic-orbital Based Ab-initio Computation at UStc'                  
                                                                                     
                     Website: http://abacus.ustc.edu.cn/                             
                                                                                     
    Version: Parallel, in development
    Processor Number is 16
    Start Time is Wed Mar 30 19:52:24 2022
                                                                                     
 ------------------------------------------------------------------------------------

 READING GENERAL INFORMATION
                           global_out_dir = OUT.stack/
                           global_in_card = INPUT
                               pseudo_dir = 
                              orbital_dir = 
                              pseudo_type = auto
                                    DRANK = 1
                                    DSIZE = 16
                                   DCOLOR = 1
                                    GRANK = 1
                                    GSIZE = 1




 >>>>>>>>>>>>>>>>>>>>>>>>>>>>>>>>>>>>>>>>>>>>>>>>>>>>>>>>>>>>>>>>>>>>>>
 |                                                                    |
 | Reading atom information in unitcell:                              |
 | From the input file and the structure file we know the number of   |
 | different elments in this unitcell, then we list the detail        |
 | information for each element, especially the zeta and polar atomic |
 | orbital number for each element. The total atom number is counted. |
 | We calculate the nearest atom distance for each atom and show the  |
 | Cartesian and Direct coordinates for each atom. We list the file   |
 | address for atomic orbitals. The volume and the lattice vectors    |
 | in real and reciprocal space is also shown.                        |
 |                                                                    |
 <<<<<<<<<<<<<<<<<<<<<<<<<<<<<<<<<<<<<<<<<<<<<<<<<<<<<<<<<<<<<<<<<<<<<<




 READING UNITCELL INFORMATION
                                    ntype = 1
                 atom label for species 1 = Al
                  lattice constant (Bohr) = 7.49843
              lattice constant (Angstrom) = 3.968

 READING ATOM TYPE 1
                               atom label = Al
                      L=0, number of zeta = 1
                      L=1, number of zeta = 1
                      L=2, number of zeta = 1
             number of atom for this type = 20
                      start magnetization = FALSE
                      start magnetization = FALSE
                      start magnetization = FALSE
                      start magnetization = FALSE
                      start magnetization = FALSE
                      start magnetization = FALSE
                      start magnetization = FALSE
                      start magnetization = FALSE
                      start magnetization = FALSE
                      start magnetization = FALSE
                      start magnetization = FALSE
                      start magnetization = FALSE
                      start magnetization = FALSE
                      start magnetization = FALSE
                      start magnetization = FALSE
                      start magnetization = FALSE
                      start magnetization = FALSE
                      start magnetization = FALSE
                      start magnetization = FALSE
                      start magnetization = FALSE

                        TOTAL ATOM NUMBER = 20

 DIRECT COORDINATES
         atom                   x                   y                   z                 mag                  vx                  vy                  vz
     taud_Al1                   0                   0         0.000103539                   0                   0                   0                   0
     taud_Al2            0.333333            0.333333           0.0497401                   0                   0                   0                   0
     taud_Al3            0.666667            0.666667           0.0997174                   0                   0                   0                   0
     taud_Al4                   0                   0            0.149472                   0                   0                   0                   0
     taud_Al5            0.333333            0.333333             0.19937                   0                   0                   0                   0
     taud_Al6            0.866667            0.866667            0.250716                   0                   0                   0                   0
     taud_Al7                 0.2                 0.2            0.300546                   0                   0                   0                   0
     taud_Al8            0.533333            0.533333            0.350368                   0                   0                   0                   0
     taud_Al9            0.866667            0.866667            0.399977                   0                   0                   0                   0
    taud_Al10                 0.2                 0.2                0.45                   0                   0                   0                   0
    taud_Al11            0.866667            0.866667            0.500023                   0                   0                   0                   0
    taud_Al12            0.533333            0.533333            0.549632                   0                   0                   0                   0
    taud_Al13                 0.2                 0.2            0.599454                   0                   0                   0                   0
    taud_Al14            0.866667            0.866667            0.649284                   0                   0                   0                   0
    taud_Al15            0.333333            0.333333             0.70063                   0                   0                   0                   0
    taud_Al16                   0                   0            0.750528                   0                   0                   0                   0
    taud_Al17            0.666667            0.666667            0.800283                   0                   0                   0                   0
    taud_Al18            0.333333            0.333333             0.85026                   0                   0                   0                   0
    taud_Al19                   0                   0            0.899896                   0                   0                   0                   0
    taud_Al20            0.666667            0.666667                0.95                   0                   0                   0                   0


                          Volume (Bohr^3) = 2108.05
                             Volume (A^3) = 312.381

 Lattice vectors: (Cartesian coordinate: in unit of a_0)
            +0.707107                  +0                  +0
            +0.353553           +0.612372                  +0
                   +0                  +0             +11.547
 Reciprocal vectors: (Cartesian coordinate: in unit of 2 pi/a_0)
             +1.41421           -0.816497                  +0
                   +0            +1.63299                  -0
                   +0                  -0          +0.0866025




 >>>>>>>>>>>>>>>>>>>>>>>>>>>>>>>>>>>>>>>>>>>>>>>>>>>>>>>>>>>>>>>>>>>>>>
 |                                                                    |
 | Reading pseudopotentials files:                                    |
 | The pseudopotential file is in UPF format. The 'NC' indicates that |
 | the type of pseudopotential is 'norm conserving'. Functional of    |
 | exchange and correlation is decided by 4 given parameters in UPF   |
 | file.  We also read in the 'core correction' if there exists.      |
 | Also we can read the valence electrons number and the maximal      |
 | angular momentum used in this pseudopotential. We also read in the |
 | trail wave function, trail atomic density and local-pseudopotential|
 | on logrithmic grid. The non-local pseudopotential projector is also|
 | read in if there is any.                                           |
 |                                                                    |
 <<<<<<<<<<<<<<<<<<<<<<<<<<<<<<<<<<<<<<<<<<<<<<<<<<<<<<<<<<<<<<<<<<<<<<




                PAO radial cut off (Bohr) = 15

 Read in pseudopotential file is Al_ONCV_PBE-1.2.upf
                     pseudopotential type = NC
                            functional Ex = PBE
                            functional Ec = 
                          functional GCEx = 
                          functional GCEc = 
                 nonlocal core correction = 0
                        valence electrons = 11
                                     lmax = 1
                           number of zeta = 0
                     number of projectors = 4
                           L of projector = 0
                           L of projector = 0
                           L of projector = 1
                           L of projector = 1
     initial pseudo atomic orbital number = 0
                                   NLOCAL = 180

 SETUP THE ELECTRONS NUMBER
            electron number of element Al = 11
      total electron number of element Al = 220
                           occupied bands = 110
                                   NBANDS = 130
 DONE : SETUP UNITCELL Time : 0.0110337 (SEC)





 >>>>>>>>>>>>>>>>>>>>>>>>>>>>>>>>>>>>>>>>>>>>>>>>>>>>>>>>>>>>>>>>>>>>>>
 |                                                                    |
 | Doing symmetry analysis:                                           |
 | We calculate the norm of 3 vectors and the angles between them,    |
 | the type of Bravais lattice is given. We can judge if the unticell |
 | is a primitive cell. Finally we give the point group operation for |
 | this unitcell. We we use the point group operations to do symmetry |
 | analysis on given k-point mesh and the charge density.             |
 |                                                                    |
 <<<<<<<<<<<<<<<<<<<<<<<<<<<<<<<<<<<<<<<<<<<<<<<<<<<<<<<<<<<<<<<<<<<<<<




 LATTICE VECTORS: (CARTESIAN COORDINATE: IN UNIT OF A0)
            +0.707107                  +0                  +0
            +0.353553           +0.612372                  +0
                   +0                  +0             +11.547
                       right hand lattice = 1
                                   NORM_A = 0.707107
                                   NORM_B = 0.707107
                                   NORM_C = 11.547
                           ALPHA (DEGREE) = 60
                           BETA  (DEGREE) = 90
                           GAMMA (DEGREE) = 90
                             BRAVAIS TYPE = 4
                     BRAVAIS LATTICE NAME = 04. Hexagonal cell
 STANDARD LATTICE VECTORS: (CARTESIAN COORDINATE: IN UNIT OF A0)
            +0.707107                  +0                  +0
            +0.353553           +0.612372                  +0
                   +0                  +0             +11.547
                                    IBRAV = 4
                                  BRAVAIS = HEXAGONAL CELL
                       LATTICE CONSTANT A = 34.7347
                                C/A RATIO = 0.667046
                                    ibrav = 4
                        ROTATION MATRICES = 24
              PURE POINT GROUP OPERATIONS = 2
                   SPACE GROUP OPERATIONS = 2
                                       C2 = 0
                                       C3 = 0
                                       C4 = 0
                                       C6 = 0
                                       S1 = 1
                                       S3 = 0
                                       S4 = 0
                                       S6 = 0
                              POINT GROUP = C_1h
 DONE : SYMMETRY Time : 0.0448131 (SEC)





 >>>>>>>>>>>>>>>>>>>>>>>>>>>>>>>>>>>>>>>>>>>>>>>>>>>>>>>>>>>>>>>>>>>>>>
 |                                                                    |
 | Setup K-points                                                     |
 | We setup the k-points according to input parameters.               |
 | The reduced k-points are set according to symmetry operations.     |
 | We treat the spin as another set of k-points.                      |
 |                                                                    |
 <<<<<<<<<<<<<<<<<<<<<<<<<<<<<<<<<<<<<<<<<<<<<<<<<<<<<<<<<<<<<<<<<<<<<<





 SETUP K-POINTS
                                    nspin = 1
                   Input type of k points = Monkhorst-Pack(Gamma)
                                   nkstot = 100
                               nkstot_ibz = 31
      IBZ             DirectX             DirectY             DirectZ              Weight    ibz2bz
        1                   0                   0                 0.5                0.01         0
        2                   0                 0.9                 0.5                0.04         1
        3                 0.8                   0                 0.5                0.04         2
        4                   0                 0.7                 0.5                0.04         3
        5                 0.6                   0                 0.5                0.04         4
        6                   0                 0.5                 0.5                0.02         5
        7                 0.9                 0.9                 0.5                0.02        11
        8                 0.9                 0.8                 0.5                0.04        12
        9                 0.9                 0.7                 0.5                0.04        13
       10                 0.9                 0.6                 0.5                0.04        14
       11                 0.9                 0.5                 0.5                0.04        15
       12                 0.9                 0.4                 0.5                0.04        16
       13                 0.9                 0.3                 0.5                0.04        17
       14                 0.9                 0.2                 0.5                0.04        18
       15                 0.9                 0.1                 0.5                0.02        19
       16                 0.8                 0.8                 0.5                0.02        22
       17                 0.8                 0.7                 0.5                0.04        23
       18                 0.8                 0.6                 0.5                0.04        24
       19                 0.8                 0.5                 0.5                0.04        25
       20                 0.8                 0.4                 0.5                0.04        26
       21                 0.8                 0.3                 0.5                0.04        27
       22                 0.2                 0.8                 0.5                0.02        28
       23                 0.7                 0.7                 0.5                0.02        33
       24                 0.7                 0.6                 0.5                0.04        34
       25                 0.7                 0.5                 0.5                0.04        35
       26                 0.7                 0.4                 0.5                0.04        36
       27                 0.7                 0.3                 0.5                0.02        37
       28                 0.6                 0.6                 0.5                0.02        44
       29                 0.6                 0.5                 0.5                0.04        45
       30                 0.4                 0.6                 0.5                0.02        46
       31                 0.5                 0.5                 0.5                0.01        55
                               nkstot now = 31

  KPOINTS            DIRECT_X            DIRECT_Y            DIRECT_Z              WEIGHT
        1                   0                   0                 0.5                0.01
        2                   0                 0.9                 0.5                0.04
        3                 0.8                   0                 0.5                0.04
        4                   0                 0.7                 0.5                0.04
        5                 0.6                   0                 0.5                0.04
        6                   0                 0.5                 0.5                0.02
        7                 0.9                 0.9                 0.5                0.02
        8                 0.9                 0.8                 0.5                0.04
        9                 0.9                 0.7                 0.5                0.04
       10                 0.9                 0.6                 0.5                0.04
       11                 0.9                 0.5                 0.5                0.04
       12                 0.9                 0.4                 0.5                0.04
       13                 0.9                 0.3                 0.5                0.04
       14                 0.9                 0.2                 0.5                0.04
       15                 0.9                 0.1                 0.5                0.02
       16                 0.8                 0.8                 0.5                0.02
       17                 0.8                 0.7                 0.5                0.04
       18                 0.8                 0.6                 0.5                0.04
       19                 0.8                 0.5                 0.5                0.04
       20                 0.8                 0.4                 0.5                0.04
       21                 0.8                 0.3                 0.5                0.04
       22                 0.2                 0.8                 0.5                0.02
       23                 0.7                 0.7                 0.5                0.02
       24                 0.7                 0.6                 0.5                0.04
       25                 0.7                 0.5                 0.5                0.04
       26                 0.7                 0.4                 0.5                0.04
       27                 0.7                 0.3                 0.5                0.02
       28                 0.6                 0.6                 0.5                0.02
       29                 0.6                 0.5                 0.5                0.04
       30                 0.4                 0.6                 0.5                0.02
       31                 0.5                 0.5                 0.5                0.01

           k-point number in this process = 31
       minimum distributed K point number = 31

  KPOINTS         CARTESIAN_X         CARTESIAN_Y         CARTESIAN_Z              WEIGHT
        1                   0                   0           0.0433013                0.02
        2                   0             1.46969           0.0433013                0.08
        3             1.13137           -0.653197           0.0433013                0.08
        4                   0              1.1431           0.0433013                0.08
        5            0.848528           -0.489898           0.0433013                0.08
        6                   0            0.816497           0.0433013                0.04
        7             1.27279            0.734847           0.0433013                0.04
        8             1.27279            0.571548           0.0433013                0.08
        9             1.27279            0.408248           0.0433013                0.08
       10             1.27279            0.244949           0.0433013                0.08
       11             1.27279           0.0816497           0.0433013                0.08
       12             1.27279          -0.0816497           0.0433013                0.08
       13             1.27279           -0.244949           0.0433013                0.08
       14             1.27279           -0.408248           0.0433013                0.08
       15             1.27279           -0.571548           0.0433013                0.04
       16             1.13137            0.653197           0.0433013                0.04
       17             1.13137            0.489898           0.0433013                0.08
       18             1.13137            0.326599           0.0433013                0.08
       19             1.13137            0.163299           0.0433013                0.08
       20             1.13137                   0           0.0433013                0.08
       21             1.13137           -0.163299           0.0433013                0.08
       22            0.282843              1.1431           0.0433013                0.04
       23            0.989949            0.571548           0.0433013                0.04
       24            0.989949            0.408248           0.0433013                0.08
       25            0.989949            0.244949           0.0433013                0.08
       26            0.989949           0.0816497           0.0433013                0.08
       27            0.989949          -0.0816497           0.0433013                0.04
       28            0.848528            0.489898           0.0433013                0.04
       29            0.848528            0.326599           0.0433013                0.08
       30            0.565685            0.653197           0.0433013                0.04
       31            0.707107            0.408248           0.0433013                0.02

  KPOINTS            DIRECT_X            DIRECT_Y            DIRECT_Z              WEIGHT
        1                   0                   0                 0.5                0.02
        2                   0                 0.9                 0.5                0.08
        3                 0.8                   0                 0.5                0.08
        4                   0                 0.7                 0.5                0.08
        5                 0.6                   0                 0.5                0.08
        6                   0                 0.5                 0.5                0.04
        7                 0.9                 0.9                 0.5                0.04
        8                 0.9                 0.8                 0.5                0.08
        9                 0.9                 0.7                 0.5                0.08
       10                 0.9                 0.6                 0.5                0.08
       11                 0.9                 0.5                 0.5                0.08
       12                 0.9                 0.4                 0.5                0.08
       13                 0.9                 0.3                 0.5                0.08
       14                 0.9                 0.2                 0.5                0.08
       15                 0.9                 0.1                 0.5                0.04
       16                 0.8                 0.8                 0.5                0.04
       17                 0.8                 0.7                 0.5                0.08
       18                 0.8                 0.6                 0.5                0.08
       19                 0.8                 0.5                 0.5                0.08
       20                 0.8                 0.4                 0.5                0.08
       21                 0.8                 0.3                 0.5                0.08
       22                 0.2                 0.8                 0.5                0.04
       23                 0.7                 0.7                 0.5                0.04
       24                 0.7                 0.6                 0.5                0.08
       25                 0.7                 0.5                 0.5                0.08
       26                 0.7                 0.4                 0.5                0.08
       27                 0.7                 0.3                 0.5                0.04
       28                 0.6                 0.6                 0.5                0.04
       29                 0.6                 0.5                 0.5                0.08
       30                 0.4                 0.6                 0.5                0.04
       31                 0.5                 0.5                 0.5                0.02
 DONE : INIT K-POINTS Time : 0.0453866 (SEC)





 >>>>>>>>>>>>>>>>>>>>>>>>>>>>>>>>>>>>>>>>>>>>>>>>>>>>>>>>>>>>>>>>>>>>>>
 |                                                                    |
 | Setup plane waves:                                                 |
 | Use the energy cutoff and the lattice vectors to generate the      |
 | dimensions of FFT grid. The number of FFT grid on each processor   |
 | is 'nrxx'. The number of plane wave basis in reciprocal space is   |
 | different for charege/potential and wave functions. We also set    |
 | the 'sticks' for the parallel of FFT.                              |
 |                                                                    |
 <<<<<<<<<<<<<<<<<<<<<<<<<<<<<<<<<<<<<<<<<<<<<<<<<<<<<<<<<<<<<<<<<<<<<<





 SETUP THE PLANE WAVE BASIS
     energy cutoff for wavefunc (unit:Ry) = 40
            [fft grid for wave functions] = 24, 24, 360
          [fft grid for charge/potential] = 24, 24, 360
                      [fft grid division] = 1, 1, 1
      [big fft grid for charge/potential] = 24, 24, 360
                                     nbxx = 13248
                                     nrxx = 13248

 SETUP PLANE WAVES FOR CHARGE/POTENTIAL
                    number of plane waves = 72325
                         number of sticks = 313

 SETUP PLANE WAVES FOR WAVE FUNCTIONS
                    number of plane waves = 15353
                         number of sticks = 109

 PARALLEL PW FOR CHARGE/POTENTIAL
     PROC   COLUMNS(POT)             PW
        1             20           4516
        2             19           4503
        3             19           4503
        4             19           4503
        5             20           4546
        6             19           4503
        7             20           4514
        8             20           4514
        9             20           4546
       10             20           4546
       11             19           4503
       12             20           4546
       13             19           4503
       14             20           4536
       15             19           4501
       16             20           4542
 --------------- sum -------------------
       16            313          72325

 PARALLEL PW FOR WAVE FUNCTIONS
     PROC     COLUMNS(W)             PW
        1              7            969
        2              7            969
        3              7            969
        4              7            969
        5              7            969
        6              6            936
        7              7            967
        8              7            955
        9              7            955
       10              7            985
       11              7            985
       12              6            926
       13              6            934
       14              7            963
       15              7            951
       16              7            951
 --------------- sum -------------------
       16            109          15353

 SETUP COORDINATES OF PLANE WAVES
              number of total plane waves = 72325

 SETUP COORDINATES OF PLANE WAVES
                            number of |g| = 2142
                                  max |g| = 227.874
                                  min |g| = 0
 DONE : INIT PLANEWAVE Time : 0.084777 (SEC)

                                     npwx = 634

 SETUP NONLOCAL PSEUDOPOTENTIALS IN PLANE WAVE BASIS
 Al non-local projectors:
 projector 1 L=0
 projector 2 L=0
 projector 3 L=1
 projector 4 L=1
      TOTAL NUMBER OF NONLOCAL PROJECTORS = 160
 DONE : LOCAL POTENTIAL Time : 0.148251 (SEC)


 Init Non-Local PseudoPotential table : 
 Init Non-Local-Pseudopotential done.
 DONE : NON-LOCAL POTENTIAL Time : 0.160018 (SEC)

                                start_pot = atomic
 DONE : INIT POTENTIAL Time : 0.200016 (SEC)


 Make real space PAO into reciprocal space.
       max mesh points in Pseudopotential = 601
     dq(describe PAO in reciprocal space) = 0.01
                                    max q = 764

 number of pseudo atomic orbitals for Al is 0
 DONE : INIT BASIS Time : 9.25592 (SEC)


 -------------------------------------------
 SELF-CONSISTENT
 -------------------------------------------

 PW ALGORITHM --------------- ION=   1  ELEC=   1--------------------------------
  K-point    CG iter num      Time(Sec)
        1       8.423077       1.922856
        2       8.646154       1.934346
        3       8.723077       1.981194
        4       8.653846       1.982714
        5       8.746154       2.007725
        6       8.546154       1.972908
        7       8.784615       2.011967
        8       8.507692       1.989875
        9       8.569231       1.965196
       10       8.623077       1.960493
       11       8.761538       1.988465
       12       8.692308       1.974542
       13       8.661538       2.030674
       14       8.669231       2.087566
       15       8.553846       1.991709
       16       8.692308       1.970235
       17       8.661538       1.957672
       18       8.584615       1.927388
       19       8.638462       1.973131
       20       8.576923       1.923863
       21       8.730769       1.959827
       22       8.584615       1.926673
       23       8.630769       1.932614
       24       8.569231       1.949981
       25       8.707692       1.941018
       26       8.469231       1.886314
       27       8.446154       1.903180
       28       8.638462       1.907466
       29       8.623077       1.959139
       30       8.553846       1.917757
       31       8.523077       2.108409
 Notice: Threshold on eigenvalues was too large.
 dr2=0.408417 < diago_error=2.200000
 Origin ETHR = 0.010000
 New    ETHR = 0.000186
  K-point    CG iter num      Time(Sec)
        1       5.884615       1.650073
        2       5.769231       1.623741
        3       5.976923       1.654271
        4       5.692308       1.499444
        5       5.953846       1.619570
        6       5.838462       1.544126
        7       5.907692       1.628496
        8       6.769231       1.913438
        9       6.284615       1.757419
       10       6.215385       1.742827
       11       6.338462       1.788767
       12       6.615385       1.858453
       13       6.015385       1.638605
       14       6.176923       1.701638
       15       6.538462       1.849841
       16       6.015385       1.624592
       17       6.292308       1.784847
       18       7.115385       2.051701
       19       7.361538       1.990804
       20       7.184615       1.962635
       21       7.223077       1.885814
       22       6.776923       1.796830
       23       5.923077       1.558711
       24       6.292308       1.708177
       25       7.130769       1.879966
       26       8.538462       2.333415
       27       7.438462       2.000212
       28       5.930769       1.595359
       29       6.353846       1.701188
       30       7.261538       1.941469
       31       6.046154       1.516172

 Density error is 0.426344550272
                          Error Threshold = 0.000185644030

       Energy                       Rydberg                            eV
   E_KohnSham            -2767.237014686217           -37650.191116242240
     E_Harris            -2767.293300107477           -37650.956918685697
      E_Fermi               +0.872555506485              +11.871726709472

 PW ALGORITHM --------------- ION=   1  ELEC=   2--------------------------------
  K-point    CG iter num      Time(Sec)
        1       2.000000       0.483384
        2       2.000000       0.491648
        3       2.000000       0.456944
        4       2.000000       0.455979
        5       2.000000       0.467313
        6       2.000000       0.436961
        7       2.000000       0.464767
        8       2.000000       0.467267
        9       2.000000       0.439428
       10       2.000000       0.485121
       11       2.000000       0.449943
       12       2.000000       0.472563
       13       2.000000       0.466587
       14       2.000000       0.445760
       15       2.000000       0.466746
       16       2.000000       0.461255
       17       2.000000       0.459860
       18       2.000000       0.479331
       19       2.000000       0.434175
       20       2.000000       0.467497
       21       2.000000       0.469573
       22       2.000000       0.431159
       23       2.000000       0.488592
       24       2.000000       0.445126
       25       2.000000       0.467041
       26       2.000000       0.467806
       27       2.000000       0.433441
       28       2.000000       0.468529
       29       2.000000       0.468585
       30       2.000000       0.453388
       31       2.000000       0.480832

 Density error is 0.629561378127
                          Error Threshold = 0.000193792977

       Energy                       Rydberg                            eV
   E_KohnSham            -2766.752341379841           -37643.596797607017
     E_Harris            -2767.245926804737           -37650.312371835360
      E_Fermi               +0.871356780032              +11.855417199368

 PW ALGORITHM --------------- ION=   1  ELEC=   3--------------------------------
  K-point    CG iter num      Time(Sec)
        1       8.715385       2.295341
        2       8.969231       2.374247
        3       9.307692       2.453109
        4       8.569231       2.216372
        5       8.900000       2.421484
        6       8.976923       2.352172
        7       9.353846       2.616481
        8       9.115385       2.466199
        9       9.076923       2.562242
       10       8.900000       2.404263
       11       8.715385       2.440088
       12       9.007692       2.437751
       13       9.007692       2.457082
       14       9.053846       2.389651
       15       9.000000       2.501358
       16       9.061538       2.532100
       17       8.669231       2.321762
       18       8.953846       2.469665
       19       9.107692       2.449458
       20       8.838462       2.359493
       21       9.330769       2.514535
       22       8.961538       2.384573
       23       8.976923       2.354610
       24       9.030769       2.400756
       25       8.884615       2.300864
       26       8.969231       2.351104
       27       9.038462       2.375383
       28       8.469231       2.195444
       29       9.246154       2.456845
       30       8.592308       2.308398
       31       8.992308       2.375846

 Density error is 5323.577746221586
                          Error Threshold = 0.000193792977

       Energy                       Rydberg                            eV
   E_KohnSham            -2736.259475185108           -37228.720069007082
     E_Harris            -2800.467894891568           -38102.320436590424
      E_Fermi               +0.566096873127               +7.702143094513

 PW ALGORITHM --------------- ION=   1  ELEC=   4--------------------------------
  K-point    CG iter num      Time(Sec)
        1       9.292308       2.426007
        2       8.961538       2.340689
        3       9.300000       2.429101
        4       9.653846       2.470589
        5       9.961538       2.512193
        6       9.200000       2.314603
        7       9.030769       2.338712
        8       8.838462       2.263154
        9       9.207692       2.381935
       10       9.300000       2.454534
       11      10.038462       2.598771
       12       9.938462       2.555395
       13       9.353846       2.429206
       14       9.323077       2.418140
       15       8.861538       2.304027
       16       9.630769       2.488026
       17       9.384615       2.420345
       18      10.146154       2.612392
       19      10.561538       2.711089
       20      10.115385       2.612076
       21      10.500000       2.709763
       22       9.938462       2.659494
       23       9.684615       2.526173
       24       9.484615       2.534676
       25      10.361538       2.778679
       26      10.361538       2.902961
       27      10.723077       2.895539
       28       9.784615       2.636316
       29      10.015385       2.651238
       30       9.792308       2.591067
       31       9.584615       2.478849

 Density error is 270.834707075253
                          Error Threshold = 0.000193792977

       Energy                       Rydberg                            eV
   E_KohnSham            -2764.449924744809           -37612.270812200601
     E_Harris            -2768.430534955249           -37666.429792579562
      E_Fermi               +0.853356720322              +11.610513822978

 PW ALGORITHM --------------- ION=   1  ELEC=   5--------------------------------
  K-point    CG iter num      Time(Sec)
        1       5.723077       1.587352
        2       5.446154       1.426424
        3       5.492308       1.471466
        4       4.907692       1.284464
        5       4.361538       1.146377
        6       4.176923       1.106422
        7       5.707692       1.555991
        8       5.846154       1.593063
        9       5.846154       1.566581
       10       5.476923       1.464522
       11       5.192308       1.412460
       12       5.169231       1.382321
       13       5.846154       1.583990
       14       5.715385       1.530529
       15       5.846154       1.595728
       16       5.415385       1.479165
       17       5.476923       1.458324
       18       6.469231       1.745936
       19       6.584615       1.770103
       20       6.623077       1.762675
       21       6.707692       1.822593
       22       6.576923       1.726462
       23       4.700000       1.332366
       24       5.823077       1.643754
       25       6.776923       1.788971
       26       7.169231       1.945907
       27       7.507692       2.004083
       28       4.438462       1.179889
       29       5.230769       1.411488
       30       6.423077       1.704653
       31       4.323077       1.188089

 Density error is 245.689740696232
                          Error Threshold = 0.000193792977

       Energy                       Rydberg                            eV
   E_KohnSham            -2765.442833455675           -37625.780028262212
     E_Harris            -2768.119576863150           -37662.198990687801
      E_Fermi               +0.856565727502              +11.654174605547

 PW ALGORITHM --------------- ION=   1  ELEC=   6--------------------------------
  K-point    CG iter num      Time(Sec)
        1       5.223077       1.412952
        2       5.184615       1.350939
        3       4.676923       1.255224
        4       4.015385       1.040402
        5       3.607692       0.913328
        6       3.384615       0.854169
        7       5.246154       1.425052
        8       5.892308       1.609839
        9       5.861538       1.577542
       10       4.815385       1.286890
       11       4.046154       1.082872
       12       4.638462       1.249015
       13       4.538462       1.211511
       14       5.538462       1.516595
       15       5.430769       1.465104
       16       4.646154       1.238977
       17       5.523077       1.498759
       18       6.361538       1.695926
       19       6.161538       1.680357
       20       5.638462       1.511062
       21       5.576923       1.482931
       22       6.623077       1.781019
       23       3.761538       0.978018
       24       4.630769       1.242138
       25       6.069231       1.680569
       26       5.407692       1.496013
       27       5.584615       1.523756
       28       3.707692       0.955733
       29       4.415385       1.176811
       30       5.384615       1.455707
       31       3.384615       0.886919

 Density error is 61.446396017545
                          Error Threshold = 0.000193792977

       Energy                       Rydberg                            eV
   E_KohnSham            -2766.642625142857           -37642.104031620926
     E_Harris            -2767.378851081007           -37652.120899395159
      E_Fermi               +0.860696865639              +11.710381623431

 PW ALGORITHM --------------- ION=   1  ELEC=   7--------------------------------
  K-point    CG iter num      Time(Sec)
        1       4.630769       1.317309
        2       4.623077       1.204166
        3       3.600000       0.964813
        4       3.069231       0.758354
        5       2.515385       0.637562
        6       2.630769       0.611500
        7       4.861538       1.325478
        8       5.276923       1.418994
        9       4.746154       1.286926
       10       4.030769       1.062986
       11       3.607692       0.935229
       12       3.784615       1.000162
       13       4.023077       1.073313
       14       4.700000       1.264172
       15       5.276923       1.405754
       16       3.607692       0.948447
       17       4.869231       1.303203
       18       4.953846       1.318007
       19       3.907692       1.031524
       20       3.800000       1.001368
       21       4.153846       1.102556
       22       4.553846       1.179224
       23       2.915385       0.723139
       24       4.100000       1.070394
       25       4.046154       1.057874
       26       3.853846       1.015799
       27       3.861538       1.017662
       28       2.738462       0.674559
       29       3.938462       1.029738
       30       3.630769       0.938659
       31       2.707692       0.683376

 Density error is 17.835814518819
                          Error Threshold = 0.000193792977

       Energy                       Rydberg                            eV
   E_KohnSham            -2766.967069674032           -37646.518325929843
     E_Harris            -2767.211013559141           -37649.837352759576
      E_Fermi               +0.861939901949              +11.727294000064

 PW ALGORITHM --------------- ION=   1  ELEC=   8--------------------------------
  K-point    CG iter num      Time(Sec)
        1       3.661538       0.967577
        2       3.376923       0.861312
        3       2.646154       0.637219
        4       2.507692       0.628778
        5       2.253846       0.503649
        6       2.276923       0.541390
        7       3.423077       0.887227
        8       3.130769       0.801660
        9       2.900000       0.727680
       10       2.800000       0.697271
       11       2.553846       0.655054
       12       2.638462       0.627290
       13       2.638462       0.675711
       14       3.161538       0.804659
       15       3.246154       0.821372
       16       2.653846       0.684831
       17       3.207692       0.808465
       18       2.746154       0.683846
       19       2.646154       0.646888
       20       2.569231       0.634193
       21       2.600000       0.633578
       22       2.700000       0.647230
       23       2.438462       0.607161
       24       2.700000       0.657297
       25       2.576923       0.652573
       26       2.538462       0.596111
       27       2.569231       0.663138
       28       2.269231       0.512205
       29       2.576923       0.660027
       30       2.538462       0.585985
       31       2.276923       0.573459

 Density error is 1.157611409446
                          Error Threshold = 0.000193792977

       Energy                       Rydberg                            eV
   E_KohnSham            -2767.047029365555           -37647.606233344872
     E_Harris            -2767.101726328630           -37648.350423705990
      E_Fermi               +0.863323620675              +11.746120459173

 PW ALGORITHM --------------- ION=   1  ELEC=   9--------------------------------
  K-point    CG iter num      Time(Sec)
        1       3.530769       0.931078
        2       2.769231       0.669436
        3       2.269231       0.542824
        4       2.230769       0.520880
        5       2.184615       0.510997
        6       2.207692       0.523886
        7       2.738462       0.698068
        8       2.676923       0.655242
        9       2.930769       0.776841
       10       2.476923       0.612087
       11       2.376923       0.604749
       12       2.430769       0.599362
       13       2.469231       0.607315
       14       2.769231       0.719093
       15       2.746154       0.663067
       16       2.461538       0.633576
       17       2.961538       0.738301
       18       2.484615       0.615424
       19       2.430769       0.578423
       20       2.423077       0.636775
       21       2.453846       0.688965
       22       2.453846       0.695138
       23       2.230769       0.614545
       24       2.469231       0.699447
       25       2.469231       0.715168
       26       2.423077       0.697625
       27       2.392308       0.696800
       28       2.184615       0.616166
       29       2.407692       0.687719
       30       2.423077       0.670956
       31       2.215385       0.607699

 Density error is 7.006346814526
                          Error Threshold = 0.000193792977

       Energy                       Rydberg                            eV
   E_KohnSham            -2767.069811434028           -37647.916199288331
     E_Harris            -2767.122138991652           -37648.628152234443
      E_Fermi               +0.862287718114              +11.732026281768

 PW ALGORITHM --------------- ION=   1  ELEC=  10--------------------------------
  K-point    CG iter num      Time(Sec)
        1       2.769231       0.802899
        2       2.407692       0.627166
        3       2.138462       0.509853
        4       2.115385       0.486751
        5       2.092308       0.510082
        6       2.123077       0.488875
        7       2.369231       0.575234
        8       2.338462       0.565499
        9       2.330769       0.575551
       10       2.261538       0.543872
       11       2.184615       0.522052
       12       2.207692       0.542753
       13       2.253846       0.516404
       14       2.400000       0.609412
       15       2.384615       0.552939
       16       2.230769       0.567086
       17       2.446154       0.586919
       18       2.192308       0.545005
       19       2.161538       0.512544
       20       2.176923       0.526395
       21       2.184615       0.531054
       22       2.200000       0.509518
       23       2.115385       0.517302
       24       2.261538       0.510410
       25       2.192308       0.590173
       26       2.246154       0.587071
       27       2.192308       0.605778
       28       2.092308       0.524412
       29       2.215385       0.617034
       30       2.176923       0.544145
       31       2.123077       0.575309

 Density error is 2.542642049079
                          Error Threshold = 0.000193792977

       Energy                       Rydberg                            eV
   E_KohnSham            -2767.067663123142           -37647.886970019208
     E_Harris            -2767.093630975207           -37648.240280772108
      E_Fermi               +0.863457821839              +11.747946359682

 PW ALGORITHM --------------- ION=   1  ELEC=  11--------------------------------
  K-point    CG iter num      Time(Sec)
        1       3.015385       0.840424
        2       2.407692       0.628241
        3       2.138462       0.552882
        4       2.092308       0.538560
        5       2.084615       0.510762
        6       2.100000       0.553455
        7       2.338462       0.604172
        8       2.223077       0.623167
        9       2.300000       0.580808
       10       2.207692       0.548023
       11       2.184615       0.528941
       12       2.161538       0.526473
       13       2.238462       0.538774
       14       2.238462       0.610366
       15       2.246154       0.616002
       16       2.269231       0.576972
       17       2.338462       0.570905
       18       2.192308       0.518975
       19       2.215385       0.539921
       20       2.169231       0.497669
       21       2.176923       0.537656
       22       2.176923       0.482105
       23       2.092308       0.490257
       24       2.261538       0.542174
       25       2.169231       0.510198
       26       2.253846       0.547750
       27       2.192308       0.492074
       28       2.084615       0.507982
       29       2.176923       0.493864
       30       2.161538       0.507323
       31       2.107692       0.498740

 Density error is 0.098424539208
                          Error Threshold = 0.000193792977

       Energy                       Rydberg                            eV
   E_KohnSham            -2767.076617677276           -37648.008802978482
     E_Harris            -2767.084443901492           -37648.115284221640
      E_Fermi               +0.864065045351              +11.756208059400

 PW ALGORITHM --------------- ION=   1  ELEC=  12--------------------------------
  K-point    CG iter num      Time(Sec)
        1       5.415385       1.481841
        2       3.469231       0.931866
        3       2.353846       0.564908
        4       2.300000       0.533207
        5       2.261538       0.553545
        6       2.261538       0.503313
        7       2.869231       0.737675
        8       2.823077       0.693711
        9       2.823077       0.706682
       10       2.600000       0.639713
       11       2.438462       0.594931
       12       2.476923       0.604430
       13       2.776923       0.695691
       14       2.646154       0.678600
       15       2.853846       0.694024
       16       2.369231       0.597167
       17       2.953846       0.739172
       18       2.723077       0.677282
       19       2.500000       0.610012
       20       2.446154       0.594610
       21       2.538462       0.618823
       22       2.630769       0.633775
       23       2.269231       0.542551
       24       2.600000       0.638630
       25       2.969231       0.745390
       26       2.515385       0.608836
       27       2.461538       0.598883
       28       2.253846       0.534715
       29       2.469231       0.603834
       30       2.515385       0.609813
       31       2.261538       0.542042

 Density error is 4.754173333666
                          Error Threshold = 0.000044738427

       Energy                       Rydberg                            eV
   E_KohnSham            -2767.043159013434           -37647.553574502752
     E_Harris            -2767.104976734740           -37648.394647749905
      E_Fermi               +0.862276784184              +11.731877518021

 PW ALGORITHM --------------- ION=   1  ELEC=  13--------------------------------
  K-point    CG iter num      Time(Sec)
        1       5.776923       1.573653
        2       3.146154       0.798356
        3       2.230769       0.530211
        4       2.184615       0.514080
        5       2.161538       0.475886
        6       2.207692       0.544339
        7       2.992308       0.743500
        8       2.607692       0.655089
        9       2.776923       0.695403
       10       2.376923       0.574759
       11       2.361538       0.570993
       12       2.415385       0.589590
       13       2.576923       0.632687
       14       2.492308       0.611351
       15       2.761538       0.680904
       16       2.223077       0.531625
       17       2.876923       0.721031
       18       2.415385       0.588401
       19       2.438462       0.595480
       20       2.330769       0.565137
       21       2.400000       0.580950
       22       2.453846       0.590384
       23       2.184615       0.516379
       24       2.469231       0.607786
       25       2.600000       0.637649
       26       2.476923       0.604278
       27       2.376923       0.571341
       28       2.161538       0.514944
       29       2.376923       0.560658
       30       2.384615       0.596555
       31       2.192308       0.490598

 Density error is 1.279522318656
                          Error Threshold = 0.000044738427

       Energy                       Rydberg                            eV
   E_KohnSham            -2767.052188569752           -37647.676427919097
     E_Harris            -2767.087049213033           -37648.150731303671
      E_Fermi               +0.863820472111              +11.752880469756

 PW ALGORITHM --------------- ION=   1  ELEC=  14--------------------------------
  K-point    CG iter num      Time(Sec)
        1       5.669231       1.521140
        2       4.538462       1.195969
        3       3.184615       0.840190
        4       2.669231       0.620885
        5       2.315385       0.573950
        6       2.438462       0.557844
        7       3.476923       0.919563
        8       3.800000       1.004774
        9       3.838462       1.006608
       10       3.000000       0.744842
       11       2.861538       0.744303
       12       3.138462       0.798782
       13       3.323077       0.850987
       14       3.638462       0.970063
       15       3.946154       1.049177
       16       2.730769       0.675477
       17       3.576923       0.922156
       18       3.461538       0.910244
       19       3.053846       0.788168
       20       2.892308       0.704414
       21       2.953846       0.763216
       22       3.423077       0.909513
       23       2.438462       0.585777
       24       3.069231       0.804059
       25       3.284615       0.835262
       26       3.238462       0.830788
       27       2.707692       0.696053
       28       2.300000       0.529207
       29       3.276923       0.875804
       30       2.853846       0.703763
       31       2.461538       0.603354

 Density error is 22.580816175180
                          Error Threshold = 0.000044738427

       Energy                       Rydberg                            eV
   E_KohnSham            -2766.964304124012           -37646.480698691470
     E_Harris            -2767.185034789198           -37649.483893461322
      E_Fermi               +0.861154233213              +11.716604428518

 PW ALGORITHM --------------- ION=   1  ELEC=  15--------------------------------
  K-point    CG iter num      Time(Sec)
        1       8.015385       2.157592
        2       4.000000       1.044999
        3       2.784615       0.723143
        4       2.430769       0.558204
        5       2.246154       0.559218
        6       2.261538       0.586947
        7       3.846154       1.130602
        8       4.038462       1.181317
        9       3.538462       1.059979
       10       2.953846       0.862358
       11       2.838462       0.792832
       12       3.346154       0.946171
       13       3.338462       0.961269
       14       3.738462       1.079550
       15       3.992308       1.143911
       16       2.846154       0.783057
       17       3.715385       1.071750
       18       3.230769       0.920470
       19       2.923077       0.854238
       20       2.800000       0.806221
       21       3.161538       0.910379
       22       3.592308       0.963285
       23       2.292308       0.553952
       24       3.292308       0.924358
       25       3.169231       0.823963
       26       3.176923       0.834166
       27       2.646154       0.629793
       28       2.246154       0.561131
       29       2.807692       0.683930
       30       2.884615       0.741591
       31       2.323077       0.546075

 Density error is 0.904520202438
                          Error Threshold = 0.000044738427

       Energy                       Rydberg                            eV
   E_KohnSham            -2767.071822880874           -37647.943566426657
     E_Harris            -2767.085077387126           -37648.123903235872
      E_Fermi               +0.863606004280              +11.749962485227

 PW ALGORITHM --------------- ION=   1  ELEC=  16--------------------------------
  K-point    CG iter num      Time(Sec)
        1       4.692308       1.255617
        2       2.623077       0.628111
        3       2.153846       0.505617
        4       2.146154       0.468547
        5       2.092308       0.498413
        6       2.138462       0.489508
        7       2.592308       0.635356
        8       2.400000       0.574386
        9       2.515385       0.618639
       10       2.276923       0.543381
       11       2.230769       0.536203
       12       2.261538       0.545068
       13       2.338462       0.561727
       14       2.353846       0.568448
       15       2.430769       0.580255
       16       2.153846       0.531420
       17       2.538462       0.600323
       18       2.307692       0.580421
       19       2.269231       0.512372
       20       2.238462       0.560864
       21       2.269231       0.526810
       22       2.307692       0.551132
       23       2.146154       0.508590
       24       2.292308       0.550206
       25       2.446154       0.597521
       26       2.253846       0.541132
       27       2.207692       0.527153
       28       2.092308       0.462686
       29       2.330769       0.597299
       30       2.269231       0.514333
       31       2.146154       0.512421

 Density error is 1.080239908793
                          Error Threshold = 0.000044738427

       Energy                       Rydberg                            eV
   E_KohnSham            -2767.077926933551           -37648.026616323965
     E_Harris            -2767.085959150778           -37648.135900245819
      E_Fermi               +0.863704662236              +11.751304795577

 PW ALGORITHM --------------- ION=   1  ELEC=  17--------------------------------
  K-point    CG iter num      Time(Sec)
        1       2.607692       0.644803
        2       2.230769       0.512605
        3       2.092308       0.489952
        4       2.076923       0.528715
        5       2.061538       0.464919
        6       2.069231       0.497708
        7       2.238462       0.510924
        8       2.107692       0.494891
        9       2.246154       0.542741
       10       2.076923       0.481455
       11       2.038462       0.488991
       12       2.069231       0.457521
       13       2.115385       0.500247
       14       2.115385       0.498142
       15       2.161538       0.512607
       16       2.092308       0.500383
       17       2.253846       0.508864
       18       2.100000       0.515057
       19       2.123077       0.479751
       20       2.084615       0.491027
       21       2.130769       0.503811
       22       2.115385       0.475810
       23       2.076923       0.509647
       24       2.130769       0.471063
       25       2.115385       0.499000
       26       2.138462       0.509745
       27       2.084615       0.485757
       28       2.061538       0.488849
       29       2.138462       0.475767
       30       2.130769       0.503245
       31       2.092308       0.491397

 Density error is 0.060732908021
                          Error Threshold = 0.000044738427

       Energy                       Rydberg                            eV
   E_KohnSham            -2767.081466138509           -37648.074769677776
     E_Harris            -2767.081860981543           -37648.080141792860
      E_Fermi               +0.864086070818              +11.756494125552

 PW ALGORITHM --------------- ION=   1  ELEC=  18--------------------------------
  K-point    CG iter num      Time(Sec)
        1       2.076923       0.482970
        2       2.000000       0.427797
        3       2.000000       0.478258
        4       2.000000       0.439909
        5       2.000000       0.459839
        6       2.000000       0.461079
        7       2.000000       0.433566
        8       2.000000       0.467295
        9       2.000000       0.469637
       10       2.000000       0.454960
       11       2.000000       0.483831
       12       2.000000       0.437501
       13       2.000000       0.466642
       14       2.000000       0.466959
       15       2.000000       0.433298
       16       2.000000       0.476546
       17       2.000000       0.457609
       18       2.000000       0.466264
       19       2.000000       0.464723
       20       2.000000       0.436033
       21       2.000000       0.468884
       22       2.000000       0.461073
       23       2.000000       0.444821
       24       2.000000       0.481818
       25       2.000000       0.437900
       26       2.169231       0.518486
       27       2.000000       0.468107
       28       2.000000       0.433883
       29       2.000000       0.475650
       30       2.000000       0.449591
       31       2.000000       0.465844

 Density error is 0.040565831662
                          Error Threshold = 0.000027605867

       Energy                       Rydberg                            eV
   E_KohnSham            -2767.081545669500           -37648.075851752415
     E_Harris            -2767.081684859557           -37648.077745530303
      E_Fermi               +0.864079870024              +11.756409759429

 PW ALGORITHM --------------- ION=   1  ELEC=  19--------------------------------
  K-point    CG iter num      Time(Sec)
        1       2.192308       0.502747
        2       2.123077       0.506723
        3       2.000000       0.432654
        4       2.000000       0.459650
        5       2.000000       0.461672
        6       2.015385       0.434070
        7       2.038462       0.491208
        8       2.038462       0.461234
        9       2.015385       0.470460
       10       2.015385       0.470902
       11       2.000000       0.438396
       12       2.000000       0.471447
       13       2.000000       0.460722
       14       2.023077       0.466836
       15       2.000000       0.472433
       16       2.000000       0.433836
       17       2.015385       0.472656
       18       2.000000       0.468512
       19       2.000000       0.438507
       20       2.000000       0.483768
       21       2.000000       0.448475
       22       2.000000       0.460118
       23       2.000000       0.464918
       24       2.000000       0.434573
       25       2.000000       0.471492
       26       2.000000       0.465250
       27       2.000000       0.456322
       28       2.000000       0.479901
       29       2.000000       0.434574
       30       2.000000       0.464632
       31       2.000000       0.467375

 Density error is 0.030087501550
                          Error Threshold = 0.000018439014

       Energy                       Rydberg                            eV
   E_KohnSham            -2767.081363426905           -37648.073372214712
     E_Harris            -2767.081639906896           -37648.077133917977
      E_Fermi               +0.864073691178              +11.756325691909

 PW ALGORITHM --------------- ION=   1  ELEC=  20--------------------------------
  K-point    CG iter num      Time(Sec)
        1       2.600000       0.631469
        2       2.000000       0.426060
        3       2.000000       0.479963
        4       2.000000       0.443096
        5       2.000000       0.460608
        6       2.000000       0.461651
        7       2.053846       0.454495
        8       2.000000       0.466938
        9       2.000000       0.464906
       10       2.061538       0.477060
       11       2.000000       0.479512
       12       2.000000       0.437373
       13       2.076923       0.488107
       14       2.000000       0.468808
       15       2.023077       0.450243
       16       2.000000       0.483941
       17       2.000000       0.440316
       18       2.053846       0.480931
       19       2.069231       0.485362
       20       2.038462       0.445979
       21       2.030769       0.487570
       22       2.092308       0.474614
       23       2.000000       0.465953
       24       2.023077       0.470841
       25       2.253846       0.507383
       26       2.015385       0.483802
       27       2.000000       0.484567
       28       2.000000       0.448204
       29       2.030769       0.491836
       30       2.023077       0.438998
       31       2.015385       0.469682

 Density error is 0.002989361103
                          Error Threshold = 0.000013676137

       Energy                       Rydberg                            eV
   E_KohnSham            -2767.081443273797           -37648.074458587405
     E_Harris            -2767.081554084089           -37648.075966238779
      E_Fermi               +0.864036777489              +11.755823455415

 PW ALGORITHM --------------- ION=   1  ELEC=  21--------------------------------
  K-point    CG iter num      Time(Sec)
        1       4.146154       1.096456
        2       2.753846       0.669129
        3       2.276923       0.542234
        4       2.184615       0.498588
        5       2.207692       0.527563
        6       2.500000       0.574017
        7       2.715385       0.691550
        8       2.723077       0.662199
        9       2.569231       0.643266
       10       2.361538       0.567578
       11       2.353846       0.569754
       12       2.361538       0.563980
       13       2.500000       0.627787
       14       2.507692       0.606541
       15       2.776923       0.692951
       16       2.346154       0.564015
       17       2.684615       0.665836
       18       2.461538       0.599363
       19       2.392308       0.576182
       20       2.330769       0.558062
       21       2.430769       0.587054
       22       2.469231       0.586503
       23       2.176923       0.523186
       24       2.438462       0.564990
       25       2.684615       0.684996
       26       2.484615       0.600481
       27       2.400000       0.588034
       28       2.200000       0.491407
       29       2.423077       0.613918
       30       2.407692       0.553258
       31       2.276923       0.572438

 Density error is 0.071527406223
                          Error Threshold = 0.000001358801

       Energy                       Rydberg                            eV
   E_KohnSham            -2767.080645004807           -37648.063597580607
     E_Harris            -2767.081847875810           -37648.079963480217
      E_Fermi               +0.863920781930              +11.754245254869

 PW ALGORITHM --------------- ION=   1  ELEC=  22--------------------------------
  K-point    CG iter num      Time(Sec)
        1       3.938462       1.043581
        2       2.523077       0.602807
        3       2.246154       0.534036
        4       2.169231       0.508093
        5       2.176923       0.516894
        6       2.276923       0.522114
        7       2.607692       0.656437
        8       2.500000       0.597585
        9       2.415385       0.601919
       10       2.315385       0.530981
       11       2.315385       0.585849
       12       2.346154       0.537970
       13       2.446154       0.635260
       14       2.407692       0.566809
       15       2.576923       0.688792
       16       2.238462       0.546022
       17       2.561538       0.670077
       18       2.376923       0.607493
       19       2.361538       0.661601
       20       2.300000       0.575112
       21       2.353846       0.593304
       22       2.423077       0.615412
       23       2.153846       0.525525
       24       2.384615       0.590234
       25       2.561538       0.686555
       26       2.384615       0.571863
       27       2.346154       0.605825
       28       2.169231       0.486867
       29       2.353846       0.642904
       30       2.307692       0.595855
       31       2.176923       0.560317

 Density error is 0.068884674553
                          Error Threshold = 0.000001358801

       Energy                       Rydberg                            eV
   E_KohnSham            -2767.080763305224           -37648.065207140360
     E_Harris            -2767.081782656666           -37648.079076128233
      E_Fermi               +0.864054598245              +11.756065919237

 PW ALGORITHM --------------- ION=   1  ELEC=  23--------------------------------
  K-point    CG iter num      Time(Sec)
        1       4.361538       1.186272
        2       2.692308       0.650291
        3       2.238462       0.546514
        4       2.153846       0.505392
        5       2.153846       0.532646
        6       2.200000       0.541372
        7       2.569231       0.614844
        8       2.515385       0.672024
        9       2.530769       0.639833
       10       2.353846       0.624405
       11       2.323077       0.545259
       12       2.346154       0.591975
       13       2.453846       0.584068
       14       2.415385       0.611521
       15       2.584615       0.620687
       16       2.230769       0.577196
       17       2.615385       0.744918
       18       2.461538       0.700457
       19       2.384615       0.653367
       20       2.315385       0.640940
       21       2.400000       0.666535
       22       2.446154       0.661421
       23       2.153846       0.672040
       24       2.392308       0.657875
       25       2.653846       0.744124
       26       2.376923       0.640727
       27       2.369231       0.630656
       28       2.153846       0.573081
       29       2.407692       0.639501
       30       2.369231       0.632676
       31       2.230769       0.600705

 Density error is 0.148360747991
                          Error Threshold = 0.000001358801

       Energy                       Rydberg                            eV
   E_KohnSham            -2767.080610692366           -37648.063130735907
     E_Harris            -2767.082115032222           -37648.083598329671
      E_Fermi               +0.863896378886              +11.753913234421

 PW ALGORITHM --------------- ION=   1  ELEC=  24--------------------------------
  K-point    CG iter num      Time(Sec)
        1       3.400000       0.895209
        2       2.607692       0.653495
        3       2.192308       0.534043
        4       2.146154       0.468456
        5       2.130769       0.519597
        6       2.161538       0.497628
        7       2.430769       0.590265
        8       2.400000       0.581171
        9       2.500000       0.619881
       10       2.300000       0.558664
       11       2.269231       0.551797
       12       2.292308       0.555747
       13       2.369231       0.572415
       14       2.346154       0.568013
       15       2.423077       0.587473
       16       2.192308       0.546735
       17       2.546154       0.634776
       18       2.376923       0.587823
       19       2.315385       0.557402
       20       2.246154       0.553357
       21       2.315385       0.527104
       22       2.361538       0.587945
       23       2.146154       0.480670
       24       2.353846       0.565891
       25       2.576923       0.626099
       26       2.338462       0.565085
       27       2.246154       0.532710
       28       2.123077       0.500353
       29       2.307692       0.555012
       30       2.269231       0.529743
       31       2.230769       0.548687

 Density error is 0.022300254882
                          Error Threshold = 0.000001358801

       Energy                       Rydberg                            eV
   E_KohnSham            -2767.081230836868           -37648.071568234715
     E_Harris            -2767.081592146233           -37648.076484100813
      E_Fermi               +0.864013211210              +11.755502819730

 PW ALGORITHM --------------- ION=   1  ELEC=  25--------------------------------
  K-point    CG iter num      Time(Sec)
        1       3.007692       0.762178
        2       2.438462       0.574962
        3       2.176923       0.520850
        4       2.123077       0.462250
        5       2.100000       0.502740
        6       2.138462       0.489474
        7       2.407692       0.584011
        8       2.300000       0.553136
        9       2.423077       0.589914
       10       2.246154       0.537176
       11       2.207692       0.522770
       12       2.230769       0.540176
       13       2.292308       0.521238
       14       2.292308       0.572220
       15       2.346154       0.535239
       16       2.138462       0.506766
       17       2.446154       0.590428
       18       2.246154       0.538785
       19       2.246154       0.538397
       20       2.215385       0.526535
       21       2.238462       0.538502
       22       2.300000       0.531226
       23       2.130769       0.517366
       24       2.269231       0.512840
       25       2.446154       0.620340
       26       2.253846       0.517403
       27       2.200000       0.522340
       28       2.115385       0.497715
       29       2.269231       0.541168
       30       2.215385       0.527737
       31       2.146154       0.478317

 Density error is 0.042343943855
                          Error Threshold = 0.000001358801

       Energy                       Rydberg                            eV
   E_KohnSham            -2767.081249929474           -37648.071828002947
     E_Harris            -2767.081683684606           -37648.077729544282
      E_Fermi               +0.864033565661              +11.755779756245

 PW ALGORITHM --------------- ION=   1  ELEC=  26--------------------------------
  K-point    CG iter num      Time(Sec)
        1       3.115385       0.776930
        2       2.238462       0.519239
        3       2.123077       0.470716
        4       2.115385       0.505055
        5       2.100000       0.460621
        6       2.130769       0.499463
        7       2.353846       0.565720
        8       2.223077       0.525352
        9       2.361538       0.570499
       10       2.207692       0.506696
       11       2.146154       0.526059
       12       2.161538       0.485991
       13       2.261538       0.542495
       14       2.253846       0.533562
       15       2.246154       0.533773
       16       2.100000       0.493716
       17       2.323077       0.549354
       18       2.200000       0.539369
       19       2.200000       0.493562
       20       2.161538       0.530118
       21       2.192308       0.508432
       22       2.261538       0.532805
       23       2.100000       0.494287
       24       2.230769       0.525215
       25       2.407692       0.595806
       26       2.223077       0.506058
       27       2.130769       0.589171
       28       2.107692       0.466683
       29       2.223077       0.536370
       30       2.169231       0.502879
       31       2.115385       0.502494

 Density error is 0.003368666456
                          Error Threshold = 0.000001358801

       Energy                       Rydberg                            eV
   E_KohnSham            -2767.081464224575           -37648.074743637364
     E_Harris            -2767.081543496796           -37648.075822191269
      E_Fermi               +0.864013969650              +11.755513138841

 PW ALGORITHM --------------- ION=   1  ELEC=  27--------------------------------
  K-point    CG iter num      Time(Sec)
        1       2.346154       0.556558
        2       2.100000       0.488369
        3       2.061538       0.449841
        4       2.038462       0.472806
        5       2.053846       0.470939
        6       2.053846       0.474383
        7       2.076923       0.488950
        8       2.061538       0.452659
        9       2.046154       0.483686
       10       2.000000       0.462796
       11       2.030769       0.466584
       12       2.030769       0.488958
       13       2.023077       0.442425
       14       2.000000       0.470608
       15       2.038462       0.476229
       16       2.046154       0.454649
       17       2.023077       0.485776
       18       2.015385       0.441631
       19       2.053846       0.482522
       20       2.030769       0.477009
       21       2.061538       0.452635
       22       2.015385       0.478877
       23       2.046154       0.466865
       24       2.046154       0.477556
       25       2.069231       0.487473
       26       2.046154       0.452213
       27       2.030769       0.482026
       28       2.053846       0.474485
       29       2.000000       0.462813
       30       2.069231       0.489758
       31       2.053846       0.451610

 Density error is 0.000974448112
                          Error Threshold = 0.000001358801

       Energy                       Rydberg                            eV
   E_KohnSham            -2767.081508475203           -37648.075345698053
     E_Harris            -2767.081510452221           -37648.075372596766
      E_Fermi               +0.864015429521              +11.755533001403

 PW ALGORITHM --------------- ION=   1  ELEC=  28--------------------------------
  K-point    CG iter num      Time(Sec)
        1       2.553846       0.583420
        2       2.200000       0.530212
        3       2.046154       0.464626
        4       2.015385       0.460674
        5       2.000000       0.470011
        6       2.038462       0.440158
        7       2.130769       0.501913
        8       2.084615       0.483290
        9       2.107692       0.496340
       10       2.092308       0.492494
       11       2.061538       0.453525
       12       2.069231       0.495211
       13       2.138462       0.500252
       14       2.123077       0.502652
       15       2.161538       0.513357
       16       2.015385       0.439489
       17       2.138462       0.525012
       18       2.138462       0.494068
       19       2.061538       0.486582
       20       2.076923       0.490244
       21       2.038462       0.450628
       22       2.138462       0.515838
       23       2.000000       0.435960
       24       2.107692       0.497341
       25       2.061538       0.482543
       26       2.053846       0.448925
       27       2.061538       0.502175
       28       2.000000       0.447288
       29       2.161538       0.515178
       30       2.069231       0.482397
       31       2.015385       0.439206

 Density error is 0.002055395847
                          Error Threshold = 0.000000442931

       Energy                       Rydberg                            eV
   E_KohnSham            -2767.081515466085           -37648.075440813882
     E_Harris            -2767.081515603125           -37648.075442678411
      E_Fermi               +0.864014700138              +11.755523077644

[...]
      89       5.511297       0.040000
      90       5.547841       0.040000
      91       6.182875       0.040000
      92       6.216031       0.040000
      93       6.978180       0.040000
      94       7.009723       0.040000
      95       7.885111       0.040000
      96       7.905946       0.040000
      97       8.762189       0.040000
      98       8.779253       0.040000
      99       8.960755       0.040000
     100       8.990197       0.040000
     101       9.133437       0.040000
     102       9.136560       0.040000
     103       9.353439       0.040000
     104       9.394770       0.040000
     105       9.760118       0.040000
     106       9.809167       0.040000
     107      10.026209       0.040000
     108      10.042270       0.040000
     109      10.443244       0.040000
     110      10.491651       0.040000
     111      11.054540       0.040000
     112      11.137484       0.040000
     113      11.794635       0.011706
     114      11.835226       0.005290
     115      11.894604       0.001024
     116      11.927964       0.000312
     117      12.726910       0.000000
     118      12.769489       0.000000
     119      13.127858       0.000000
     120      13.147693       0.000000
     121      13.778074       0.000000
     122      13.802214       0.000000
     123      14.601473       0.000000
     124      14.636889       0.000000
     125      14.907693       0.000000
     126      14.921651       0.000000
     127      16.116380       0.000000
     128      16.131738       0.000000
     129      16.240169       0.000000
     130      16.279272       0.000000

 29/31 kpoint (Cartesian) = 0.848528 0.326599 0.043301 (526 pws)
       1     -91.689698       0.080000
       2     -91.689142       0.080000
       3     -91.673145       0.080000
       4     -91.670208       0.080000
       5     -91.667051       0.080000
       6     -91.665862       0.080000
       7     -91.664020       0.080000
       8     -91.661773       0.080000
       9     -91.659210       0.080000
      10     -91.656325       0.080000
      11     -91.651557       0.080000
      12     -91.649065       0.080000
      13     -91.646037       0.080000
      14     -91.643249       0.080000
      15     -91.643060       0.080000
      16     -91.641690       0.080000
      17     -91.616123       0.080000
      18     -91.615136       0.080000
      19     -91.612798       0.080000
      20     -91.593561       0.080000
      21     -53.302558       0.080000
      22     -53.302460       0.080000
      23     -53.294278       0.080000
      24     -53.294054       0.080000
      25     -53.288912       0.080000
      26     -53.288808       0.080000
      27     -53.287148       0.080000
      28     -53.286981       0.080000
      29     -53.280263       0.080000
      30     -53.280094       0.080000
      31     -53.279083       0.080000
      32     -53.278988       0.080000
      33     -53.277640       0.080000
      34     -53.277491       0.080000
      35     -53.274765       0.080000
      36     -53.274495       0.080000
      37     -53.273889       0.080000
      38     -53.273829       0.080000
      39     -53.273712       0.080000
      40     -53.273521       0.080000
      41     -53.272818       0.080000
      42     -53.272538       0.080000
      43     -53.267411       0.080000
      44     -53.267376       0.080000
      45     -53.267120       0.080000
      46     -53.266979       0.080000
      47     -53.266870       0.080000
      48     -53.266708       0.080000
      49     -53.266213       0.080000
      50     -53.266139       0.080000
      51     -53.265097       0.080000
      52     -53.265003       0.080000
      53     -53.264051       0.080000
      54     -53.263811       0.080000
      55     -53.262109       0.080000
      56     -53.261418       0.080000
      57     -53.257228       0.080000
      58     -53.257038       0.080000
      59     -53.255780       0.080000
      60     -53.255543       0.080000
      61     -53.253418       0.080000
      62     -53.253083       0.080000
      63     -53.250418       0.080000
      64     -53.250028       0.080000
      65     -53.248468       0.080000
      66     -53.248143       0.080000
      67     -53.247064       0.080000
      68     -53.246902       0.080000
      69     -53.240600       0.080000
      70     -53.240528       0.080000
      71     -53.235805       0.080000
      72     -53.223489       0.080000
      73     -53.222626       0.080000
      74     -53.222456       0.080000
      75     -53.221686       0.080000
      76     -53.217006       0.080000
      77     -53.216772       0.080000
      78     -53.216165       0.080000
      79     -53.202452       0.080000
      80     -53.201168       0.080000
      81       5.368709       0.080000
      82       5.382198       0.080000
      83       5.496091       0.080000
      84       5.527209       0.080000
      85       5.766514       0.080000
      86       5.807756       0.080000
      87       6.165393       0.080000
      88       6.207003       0.080000
      89       6.697253       0.080000
      90       6.733228       0.080000
      91       7.340711       0.080000
      92       7.369098       0.080000
      93       7.742679       0.080000
      94       7.755530       0.080000
      95       7.841664       0.080000
      96       7.882443       0.080000
      97       8.059068       0.080000
      98       8.104567       0.080000
      99       8.230876       0.080000
     100       8.263214       0.080000
     101       8.535833       0.080000
     102       8.574839       0.080000
     103       8.947854       0.080000
     104       8.952564       0.080000
     105       9.309012       0.080000
     106       9.320200       0.080000
     107       9.680553       0.080000
     108       9.709868       0.080000
     109      10.225076       0.080000
     110      10.227544       0.080000
     111      10.779168       0.080000
     112      10.825119       0.080000
     113      11.483732       0.079995
     114      11.494597       0.079990
     115      11.598597       0.078910
     116      11.636915       0.076201
     117      12.576163       0.000000
     118      12.603352       0.000000
     119      12.811659       0.000000
     120      12.812614       0.000000
     121      13.666946       0.000000
     122      13.689123       0.000000
     123      13.987348       0.000000
     124      14.027317       0.000000
     125      14.550752       0.000000
     126      14.590334       0.000000
     127      14.731345       0.000000
     128      14.751871       0.000000
     129      15.227662       0.000000
     130      15.258924       0.000000

 30/31 kpoint (Cartesian) = 0.565685 0.653197 0.043301 (538 pws)
       1     -91.678408       0.040000
       2     -91.676273       0.040000
       3     -91.666050       0.040000
       4     -91.664448       0.040000
       5     -91.661464       0.040000
       6     -91.658466       0.040000
       7     -91.655734       0.040000
       8     -91.654090       0.040000
       9     -91.652743       0.040000
      10     -91.649205       0.040000
      11     -91.644636       0.040000
      12     -91.643208       0.040000
      13     -91.640228       0.040000
      14     -91.639738       0.040000
      15     -91.639597       0.040000
      16     -91.636941       0.040000
      17     -91.611194       0.040000
      18     -91.609505       0.040000
      19     -91.607750       0.040000
      20     -91.588579       0.040000
      21     -53.300849       0.040000
      22     -53.300714       0.040000
      23     -53.292925       0.040000
      24     -53.292536       0.040000
      25     -53.290985       0.040000
      26     -53.290795       0.040000
      27     -53.286325       0.040000
      28     -53.286132       0.040000
      29     -53.278953       0.040000
      30     -53.278761       0.040000
      31     -53.278271       0.040000
      32     -53.278017       0.040000
      33     -53.276115       0.040000
      34     -53.276002       0.040000
      35     -53.275915       0.040000
      36     -53.275852       0.040000
      37     -53.273124       0.040000
      38     -53.272905       0.040000
      39     -53.272324       0.040000
      40     -53.272080       0.040000
      41     -53.271537       0.040000
      42     -53.271186       0.040000
      43     -53.269381       0.040000
      44     -53.269337       0.040000
      45     -53.267284       0.040000
      46     -53.267072       0.040000
      47     -53.266960       0.040000
      48     -53.266688       0.040000
      49     -53.265761       0.040000
      50     -53.265628       0.040000
      51     -53.265418       0.040000
      52     -53.265338       0.040000
      53     -53.263758       0.040000
      54     -53.263512       0.040000
      55     -53.263302       0.040000
      56     -53.263161       0.040000
      57     -53.258598       0.040000
      58     -53.258405       0.040000
      59     -53.254858       0.040000
      60     -53.254763       0.040000
      61     -53.252757       0.040000
      62     -53.252649       0.040000
      63     -53.252518       0.040000
      64     -53.252120       0.040000
      65     -53.249393       0.040000
      66     -53.249259       0.040000
      67     -53.248653       0.040000
      68     -53.248587       0.040000
      69     -53.239041       0.040000
      70     -53.238846       0.040000
      71     -53.234086       0.040000
      72     -53.223858       0.040000
      73     -53.223228       0.040000
      74     -53.222710       0.040000
      75     -53.222173       0.040000
      76     -53.218874       0.040000
      77     -53.218686       0.040000
      78     -53.214452       0.040000
      79     -53.203310       0.040000
      80     -53.202100       0.040000
      81       7.032989       0.040000
      82       7.034993       0.040000
      83       7.048552       0.040000
      84       7.076743       0.040000
      85       7.151693       0.040000
      86       7.175852       0.040000
      87       7.178509       0.040000
      88       7.217757       0.040000
      89       7.390697       0.040000
      90       7.450001       0.040000
      91       7.459261       0.040000
      92       7.479799       0.040000
      93       7.788623       0.040000
      94       7.833203       0.040000
      95       7.842500       0.040000
      96       7.865006       0.040000
      97       8.269653       0.040000
      98       8.286589       0.040000
      99       8.440650       0.040000
     100       8.482890       0.040000
     101       8.872812       0.040000
     102       8.907174       0.040000
     103       9.142012       0.040000
     104       9.154736       0.040000
     105       9.763816       0.040000
     106       9.769329       0.040000
     107       9.896636       0.040000
     108       9.921577       0.040000
     109      10.578803       0.040000
     110      10.593415       0.040000
     111      11.005329       0.040000
     112      11.052066       0.040000
     113      11.532761       0.039965
     114      11.538577       0.039954
     115      11.631860       0.038365
     116      11.671531       0.035268
     117      11.872486       0.002024
     118      11.876254       0.001813
     119      11.985880       0.000025
     120      11.989140       0.000021
     121      12.192320       0.000000
     122      12.244332       0.000000
     123      12.581200       0.000000
     124      12.683450       0.000000
     125      13.069434       0.000000
     126      13.135572       0.000000
     127      13.369227       0.000000
     128      13.401163       0.000000
     129      13.475221       0.000000
     130      13.560308       0.000000

 31/31 kpoint (Cartesian) = 0.707107 0.408248 0.043301 (524 pws)
       1     -91.691940       0.020000
       2     -91.691517       0.020000
       3     -91.678890       0.020000
       4     -91.674894       0.020000
       5     -91.672360       0.020000
       6     -91.668915       0.020000
       7     -91.667520       0.020000
       8     -91.666896       0.020000
       9     -91.665225       0.020000
      10     -91.658934       0.020000
      11     -91.655843       0.020000
      12     -91.655412       0.020000
      13     -91.651910       0.020000
      14     -91.649153       0.020000
      15     -91.647176       0.020000
      16     -91.643441       0.020000
      17     -91.621794       0.020000
      18     -91.616703       0.020000
      19     -91.614391       0.020000
      20     -91.597994       0.020000
      21     -53.304265       0.020000
      22     -53.303931       0.020000
      23     -53.295334       0.020000
      24     -53.295045       0.020000
      25     -53.288449       0.020000
      26     -53.288050       0.020000
      27     -53.287944       0.020000
      28     -53.287920       0.020000
      29     -53.281956       0.020000
      30     -53.281419       0.020000
      31     -53.280280       0.020000
      32     -53.280085       0.020000
      33     -53.279178       0.020000
      34     -53.279021       0.020000
      35     -53.275370       0.020000
      36     -53.275285       0.020000
      37     -53.274676       0.020000
      38     -53.274489       0.020000
      39     -53.273931       0.020000
      40     -53.273800       0.020000
      41     -53.273618       0.020000
      42     -53.273063       0.020000
      43     -53.267899       0.020000
      44     -53.267763       0.020000
      45     -53.267575       0.020000
      46     -53.267336       0.020000
      47     -53.267149       0.020000
      48     -53.266867       0.020000
      49     -53.266733       0.020000
      50     -53.266583       0.020000
      51     -53.265368       0.020000
      52     -53.264946       0.020000
      53     -53.264025       0.020000
      54     -53.263993       0.020000
      55     -53.261611       0.020000
      56     -53.260850       0.020000
      57     -53.256960       0.020000
      58     -53.256888       0.020000
      59     -53.255865       0.020000
      60     -53.255752       0.020000
      61     -53.253717       0.020000
      62     -53.253227       0.020000
      63     -53.250014       0.020000
      64     -53.249626       0.020000
      65     -53.248517       0.020000
      66     -53.248083       0.020000
      67     -53.246579       0.020000
      68     -53.246278       0.020000
      69     -53.242165       0.020000
      70     -53.242093       0.020000
      71     -53.237407       0.020000
      72     -53.223662       0.020000
      73     -53.222705       0.020000
      74     -53.222500       0.020000
      75     -53.221188       0.020000
      76     -53.217807       0.020000
      77     -53.216349       0.020000
      78     -53.216071       0.020000
      79     -53.202571       0.020000
      80     -53.200622       0.020000
      81       6.315512       0.020000
      82       6.316938       0.020000
      83       6.330594       0.020000
      84       6.361287       0.020000
      85       6.436227       0.020000
      86       6.461203       0.020000
      87       6.463405       0.020000
      88       6.504385       0.020000
      89       6.683614       0.020000
      90       6.742916       0.020000
      91       6.743692       0.020000
      92       6.765423       0.020000
      93       7.079325       0.020000
      94       7.127045       0.020000
      95       7.133524       0.020000
      96       7.156343       0.020000
      97       7.566366       0.020000
      98       7.584858       0.020000
      99       7.731822       0.020000
     100       7.776074       0.020000
     101       8.178016       0.020000
     102       8.213432       0.020000
     103       8.446456       0.020000
     104       8.464091       0.020000
     105       9.072842       0.020000
     106       9.088184       0.020000
     107       9.223410       0.020000
     108       9.249476       0.020000
     109       9.943960       0.020000
     110       9.945498       0.020000
     111      10.449885       0.020000
     112      10.487640       0.020000
     113      11.247187       0.020000
     114      11.259686       0.020000
     115      11.307097       0.020000
     116      11.318319       0.020000
     117      12.270096       0.000000
     118      12.340699       0.000000
     119      12.419496       0.000000
     120      12.494112       0.000000
     121      13.695177       0.000000
     122      13.735282       0.000000
     123      13.802291       0.000000
     124      13.839139       0.000000
     125      15.084426       0.000000
     126      15.093363       0.000000
     127      15.094209       0.000000
     128      15.140170       0.000000
     129      16.494566       0.000000
     130      16.497245       0.000000



 --------------------------------------------
 !FINAL_ETOT_IS -37648.0752810756166582 eV
 --------------------------------------------






  |CLASS_NAME---------|NAME---------------|TIME(Sec)-----|CALLS----|AVG------|PER%-------
                                      total     1065.39959        17     62.67    100.00%
                 Run_pw     plane_wave_line     1065.39335         1   1065.39    100.00%
                Cell_PW        opt_cells_pw     1065.30054         1   1065.30     99.99%
                    FFT               FFT3D      268.97923   1499927      0.00     25.25%
              Potential            v_of_rho        0.31658        41      0.01      0.03%
                H_XC_pw                v_xc        0.28888        41      0.01      0.03%
               wavefunc             wfcinit        9.05554         1      9.06      0.85%
            pp_cell_vnl              getvnl        1.21100      1302      0.00      0.11%
                 WF_igk              get_sk        0.28955     26660      0.00      0.03%
              Hamilt_PW      diagH_subspace       89.75084      1241      0.07      8.42%
              Hamilt_PW               h_psi      713.58691    518765      0.00     66.98%
              Hamilt_PW                vloc      307.81889    518765      0.00     28.89%
              Hamilt_PW                 vnl      401.81072    518765      0.00     37.71%
              Hamilt_PW     add_nonlocal_pp      126.01729    518765      0.00     11.83%
              Hamilt_PW                meta        0.13937    518765      0.00      0.01%
                 Hamilt        diagH_LAPACK        7.90340      1241      0.01      0.74%
                   Ions         opt_ions_pw     1056.13307         1   1056.13     99.13%
              Electrons     self_consistent     1056.13304         1   1056.13     99.13%
               Symmetry        rho_symmetry        0.31781        42      0.01      0.03%
              Electrons             c_bands      978.07780        41     23.86     91.80%
                 Hamilt            diagH_pw      976.68226      1271      0.77     91.67%
               Diago_CG                diag      889.12984      1272      0.70     83.46%
                 Charge            sum_band       73.75253        41      1.80      6.92%
                 Charge             rho_mpi        0.30841        41      0.01      0.03%
                 Charge             mix_rho        0.12444        41      0.00      0.01%
 ----------------------------------------------------------------------------------------

 CLASS_NAME---------|NAME---------------|MEMORY(MB)--------
                                         42.9659
             wavefunc                 evc        38.9865
 ----------------------------------------------------------

 Start  Time  : Wed Mar 30 19:52:24 2022
 Finish Time  : Wed Mar 30 20:10:12 2022
 Total  Time  : 0 h 17 mins 48 secs 
