 *********************************************************
 *                                                       *
 *                  WELCOME TO ABACUS v3.0               *
 *                                                       *
 *            'Atomic-orbital Based Ab-initio            *
 *                  Computation at UStc'                 *
 *                                                       *
 *          Website: http://abacus.ustc.edu.cn/          *
 *                                                       *
 *********************************************************
 Wed May  3 14:14:01 2023
 MAKE THE DIR         : OUT.oftest/
Notice: symbol 'Li_locpsp' is not an element symbol!!!! set the covalent radius to be 0.
 UNIFORM GRID DIM     : 32 * 32 * 32
 UNIFORM GRID DIM(BIG): 32 * 32 * 32
func,idXC_GGA_X_PBE 101
func,idXC_GGA_C_PBE 130
 DONE(0.171777   SEC) : SETUP UNITCELL
 DONE(0.228485   SEC) : SYMMETRY
 DONE(0.228692   SEC) : INIT K-POINTS
 ---------------------------------------------------------
 Self-consistent calculations for electrons
 ---------------------------------------------------------
 SPIN    KPOINTS         PROCESSORS  
 1       1               1           
 ---------------------------------------------------------
 Use plane wave basis
 ---------------------------------------------------------
 ELEMENT NATOM       XC          
 Li      1           
 ---------------------------------------------------------
 Initial plane wave basis and FFT box
 ---------------------------------------------------------
 DONE(0.23041    SEC) : INIT BASIS
 DONE(0.230436   SEC) : INIT PHI
 DONE(0.296017   SEC) : LOCAL POTENTIAL
 DONE(0.296049   SEC) : NON-LOCAL POTENTIAL
 START CHARGE      : atomic
 DONE(0.422515   SEC) : INIT POTENTIAL
 DONE(0.422673   SEC) : INIT OPTIMIZATION
Default type: double
nnode = 10
nlayer = 3
feg_net_F = 0.540933
 DONE(0.486318   SEC) : INIT KEDF
======================== Running OFDFT ========================
Iter        Etot(Ha)          Theta      PotNorm     deltaE(Ha)
0     -2.669084536716e-01   2.000e-01   7.451e-02   -2.669e-01  
1     -2.761031730143e-01   5.981e-02   5.659e-02   -9.195e-03  
2     -2.764670784447e-01   5.745e-03   3.798e-02   -3.639e-04  
3     -2.770061117085e-01   2.218e-02   3.506e-03   -5.390e-04  
4     -2.770083067043e-01   6.737e-04   6.176e-04   -2.195e-06  
5     -2.770083947086e-01   2.117e-04   6.650e-05   -8.800e-08  
6     -2.770083952981e-01   8.970e-06   2.391e-05   -5.894e-10  

  |CLASS_NAME---------|NAME---------------|TIME(Sec)-----|CALLS----|AVG------|PER%-------
                       total               258.5          21        12        1e+02     %
   Driver              driver_line         258.49         1         2.6e+02   1e+02     %
   PW_Basis            setuptransform      0.14385        1         0.14      0.056     %
   PW_Basis            recip2real          4.1678         3988      0.001     1.6       %
   PW_Basis            gathers_scatterp    0.42612        3988      0.00011   0.16      %
   Potential           update_from_charge  7.3325         200       0.037     2.8       %
   Potential           cal_v_eff           7.33           200       0.037     2.8       %
   H_Hartree_pw        v_hartree           0.51541        200       0.0026    0.2       %
   PW_Basis            real2recip          4.1545         3988      0.001     1.6       %
   PW_Basis            gatherp_scatters    0.27093        3988      6.8e-05   0.1       %
   PotXC               cal_v_eff           6.7919         200       0.034     2.6       %
   XC_Functional       v_xc                128.5          100       1.3       50        %
   XC_Functional       v_xc_libxc          6.7779         200       0.034     2.6       %
   ESolver_OF          Run                 258.01         1         2.6e+02   1e+02     %
   KEDF_vW             vw_potential        0.50478        199       0.0025    0.2       %
 ----------------------------------------------------------------------------------------

 START  Time  : Wed May  3 14:14:01 2023
 FINISH Time  : Wed May  3 14:18:19 2023
 TOTAL  Time  : 2.6e+02
 SEE INFORMATION IN : OUT.oftest/
