                                                                                     
                             WELCOME TO ABACUS v3.0                                  
                                                                                     
               'Atomic-orbital Based Ab-initio Computation at UStc'                  
                                                                                     
                     Website: http://abacus.ustc.edu.cn/                             
                                                                                     
    Version: Parallel, in development
    Processor Number is 1
    Start Time is Wed Dec 28 12:42:27 2022
                                                                                     
 ------------------------------------------------------------------------------------

 READING GENERAL INFORMATION
                           global_out_dir = OUT.blpstest/
                           global_in_card = INPUT
                               pseudo_dir = 
                              orbital_dir = 
                                    DRANK = 1
                                    DSIZE = 1
                                   DCOLOR = 1
                                    GRANK = 1
                                    GSIZE = 1
 The esolver type has been set to : ksdft_pw




 >>>>>>>>>>>>>>>>>>>>>>>>>>>>>>>>>>>>>>>>>>>>>>>>>>>>>>>>>>>>>>>>>>>>>>
 |                                                                    |
 | Reading atom information in unitcell:                              |
 | From the input file and the structure file we know the number of   |
 | different elments in this unitcell, then we list the detail        |
 | information for each element, especially the zeta and polar atomic |
 | orbital number for each element. The total atom number is counted. |
 | We calculate the nearest atom distance for each atom and show the  |
 | Cartesian and Direct coordinates for each atom. We list the file   |
 | address for atomic orbitals. The volume and the lattice vectors    |
 | in real and reciprocal space is also shown.                        |
 |                                                                    |
 <<<<<<<<<<<<<<<<<<<<<<<<<<<<<<<<<<<<<<<<<<<<<<<<<<<<<<<<<<<<<<<<<<<<<<




 READING UNITCELL INFORMATION
                                    ntype = 1
                 atom label for species 1 = Mg
                  lattice constant (Bohr) = 6.79167
              lattice constant (Angstrom) = 3.59399

 READING ATOM TYPE 1
                               atom label = Mg
                      L=0, number of zeta = 1
                      L=1, number of zeta = 1
                      L=2, number of zeta = 1
             number of atom for this type = 1
                      start magnetization = FALSE

                        TOTAL ATOM NUMBER = 1

 DIRECT COORDINATES
         atom                   x                   y                   z                 mag                  vx                  vy                  vz
     taud_Mg1                   0                   0                   0                   0                   0                   0                   0


                          Volume (Bohr^3) = 156.639
                             Volume (A^3) = 23.2114

 Lattice vectors: (Cartesian coordinate: in unit of a_0)
                 -0.5                +0.5                +0.5
                 +0.5                -0.5                +0.5
                 +0.5                +0.5                -0.5
 Reciprocal vectors: (Cartesian coordinate: in unit of 2 pi/a_0)
                   +0                  +1                  +1
                   +1                  +0                  +1
                   +1                  +1                  +0




 >>>>>>>>>>>>>>>>>>>>>>>>>>>>>>>>>>>>>>>>>>>>>>>>>>>>>>>>>>>>>>>>>>>>>>
 |                                                                    |
 | Reading pseudopotentials files:                                    |
 | The pseudopotential file is in UPF format. The 'NC' indicates that |
 | the type of pseudopotential is 'norm conserving'. Functional of    |
 | exchange and correlation is decided by 4 given parameters in UPF   |
 | file.  We also read in the 'core correction' if there exists.      |
 | Also we can read the valence electrons number and the maximal      |
 | angular momentum used in this pseudopotential. We also read in the |
 | trail wave function, trail atomic density and local-pseudopotential|
 | on logrithmic grid. The non-local pseudopotential projector is also|
 | read in if there is any.                                           |
 |                                                                    |
 <<<<<<<<<<<<<<<<<<<<<<<<<<<<<<<<<<<<<<<<<<<<<<<<<<<<<<<<<<<<<<<<<<<<<<




                PAO radial cut off (Bohr) = 16

 Read in pseudopotential file is mg.gga.psp
                     pseudopotential type = 
          exchange-correlation functional = XC_GGA_X_PBE+XC_GGA_C_PBE
                 nonlocal core correction = 0
                        valence electrons = 2
                                     lmax = 0
                           number of zeta = 0
                     number of projectors = 0
Notice: symbol 'mg_locpsp' is not an element symbol!!!! set the covalent radius to be 0.
     initial pseudo atomic orbital number = 0
                                   NLOCAL = 9




 >>>>>>>>>>>>>>>>>>>>>>>>>>>>>>>>>>>>>>>>>>>>>>>>>>>>>>>>>>>>>>>>>>>>>>
 |                                                                    |
 | Setup plane waves of charge/potential:                             |
 | Use the energy cutoff and the lattice vectors to generate the      |
 | dimensions of FFT grid. The number of FFT grid on each processor   |
 | is 'nrxx'. The number of plane wave basis in reciprocal space is   |
 | different for charege/potential and wave functions. We also set    |
 | the 'sticks' for the parallel of FFT. The number of plane waves    |
 | is 'npw' in each processor.                                        |
 <<<<<<<<<<<<<<<<<<<<<<<<<<<<<<<<<<<<<<<<<<<<<<<<<<<<<<<<<<<<<<<<<<<<<<





 SETUP THE PLANE WAVE BASIS
 energy cutoff for charge/potential (unit:Ry) = 240
          [fft grid for charge/potential] = 30, 30, 30
                      [fft grid division] = 1, 1, 1
      [big fft grid for charge/potential] = 30, 30, 30
                                     nbxx = 27000
                                     nrxx = 27000

 SETUP PLANE WAVES FOR CHARGE/POTENTIAL
                    number of plane waves = 9909
                         number of sticks = 623

 PARALLEL PW FOR CHARGE/POTENTIAL
     PROC   COLUMNS(POT)             PW
        1            623           9909
 --------------- sum -------------------
        1            623           9909
                            number of |g| = 131
                                  max |g| = 280
                                  min |g| = 0

 SETUP THE ELECTRONS NUMBER
            electron number of element Mg = 2
      total electron number of element Mg = 2
            AUTOSET number of electrons:  = 2
 DONE : SETUP UNITCELL Time : 0.128812 (SEC)





 >>>>>>>>>>>>>>>>>>>>>>>>>>>>>>>>>>>>>>>>>>>>>>>>>>>>>>>>>>>>>>>>>>>>>>
 |                                                                    |
 | Doing symmetry analysis:                                           |
 | We calculate the norm of 3 vectors and the angles between them,    |
 | the type of Bravais lattice is given. We can judge if the unticell |
 | is a primitive cell. Finally we give the point group operation for |
 | this unitcell. We we use the point group operations to do symmetry |
 | analysis on given k-point mesh and the charge density.             |
 |                                                                    |
 <<<<<<<<<<<<<<<<<<<<<<<<<<<<<<<<<<<<<<<<<<<<<<<<<<<<<<<<<<<<<<<<<<<<<<




 LATTICE VECTORS: (CARTESIAN COORDINATE: IN UNIT OF A0)
                 -0.5                +0.5                +0.5
                 +0.5                -0.5                +0.5
                 +0.5                +0.5                -0.5
                       right hand lattice = 1
                                   NORM_A = 0.866025
                                   NORM_B = 0.866025
                                   NORM_C = 0.866025
                           ALPHA (DEGREE) = 109.471
                           BETA  (DEGREE) = 109.471
                           GAMMA (DEGREE) = 109.471
                             BRAVAIS TYPE = 2
                     BRAVAIS LATTICE NAME = 02. Cubic I (body-centered)
                                    IBRAV = 2
                                  BRAVAIS = BODY CENTERED CUBIC
                       LATTICE CONSTANT A = 1
                                    ibrav = 2
                        ROTATION MATRICES = 48
              PURE POINT GROUP OPERATIONS = 48
                   SPACE GROUP OPERATIONS = 48
                              POINT GROUP = O_h
Warning : If the optimal symmetric configuration is not the input configuration, 
you have to manually change configurations, ABACUS would only calculate the input structure.
 DONE : SYMMETRY Time : 0.183646 (SEC)





 >>>>>>>>>>>>>>>>>>>>>>>>>>>>>>>>>>>>>>>>>>>>>>>>>>>>>>>>>>>>>>>>>>>>>>
 |                                                                    |
 | Setup K-points                                                     |
 | We setup the k-points according to input parameters.               |
 | The reduced k-points are set according to symmetry operations.     |
 | We treat the spin as another set of k-points.                      |
 |                                                                    |
 <<<<<<<<<<<<<<<<<<<<<<<<<<<<<<<<<<<<<<<<<<<<<<<<<<<<<<<<<<<<<<<<<<<<<<





 SETUP K-POINTS
                                    nspin = 1
                   Input type of k points = Monkhorst-Pack(Gamma)
                                   nkstot = 8000
                               nkstot_ibz = 256
      IBZ             DirectX             DirectY             DirectZ              Weight    ibz2bz
        1                   0                   0                   0            0.000125         0
        2                0.95                0.05                   0              0.0015         1
        3                 0.9                 0.1                   0              0.0015         2
        4                0.85                0.15                   0              0.0015         3
        5                 0.8                 0.2                   0              0.0015         4
        6                0.75                0.25                   0              0.0015         5
        7                 0.7                 0.3                   0              0.0015         6
        8                0.65                0.35                   0              0.0015         7
        9                 0.6                 0.4                   0              0.0015         8
       10                0.55                0.45                   0              0.0015         9
       11                 0.5                 0.5                   0             0.00075        10
       12                0.95                0.95                 0.1               0.003        21
       13                0.95                 0.9                0.15               0.006        22
       14                0.95                0.85                 0.2               0.006        23
       15                0.95                 0.8                0.25               0.006        24
       16                0.95                0.75                 0.3               0.006        25
       17                0.95                 0.7                0.35               0.006        26
       18                0.95                 0.4                0.65               0.006        27
       19                0.95                 0.6                0.45               0.006        28
       20                0.95                0.55                 0.5               0.006        29
       21                 0.9                 0.9                 0.2               0.003        42
       22                 0.9                0.85                0.25               0.006        43
       23                 0.9                 0.8                 0.3               0.006        44
       24                 0.9                0.75                0.35               0.006        45
       25                 0.9                 0.7                 0.4               0.006        46
       26                 0.9                0.45                0.65               0.006        47
       27                 0.9                 0.6                 0.5               0.006        48
       28                 0.9                0.55                0.55               0.003        49
       29                0.85                0.85                 0.3               0.003        63
       30                0.85                 0.8                0.35               0.006        64
       31                0.85                0.75                 0.4               0.006        65
       32                0.85                 0.7                0.45               0.006        66
       33                0.85                0.65                 0.5               0.006        67
       34                0.85                 0.6                0.55               0.006        68
       35                 0.8                 0.8                 0.4               0.003        84
       36                 0.8                0.75                0.45               0.006        85
       37                 0.8                 0.7                 0.5               0.006        86
       38                 0.8                0.65                0.55               0.006        87
       39                 0.6                 0.6                 0.8               0.003        88
       40                0.75                0.75                 0.5               0.003       105
       41                0.75                 0.7                0.55               0.006       106
       42                0.75                0.65                 0.6               0.006       107
       43                 0.7                 0.7                 0.6               0.003       126
       44                 0.7                0.65                0.65               0.003       127
       45                0.95                0.95                0.95               0.001       421
       46                0.95                0.95                 0.9               0.003       422
       47                0.95                0.95                0.85               0.003       423
       48                0.95                0.95                 0.8               0.003       424
       49                0.95                0.95                0.75               0.003       425
       50                0.95                0.95                 0.7               0.003       426
       51                0.95                0.95                0.65               0.003       427
       52                0.95                0.95                 0.6               0.003       428
       53                0.95                0.95                0.55              0.0015       429
       54                0.95                0.95                0.05             0.00075       439
       55                0.95                 0.9                 0.9               0.003       442
       56                0.95                0.85                 0.9               0.006       443
       57                0.95                 0.9                 0.8               0.006       444
       58                0.95                 0.9                0.75               0.006       445
       59                 0.9                 0.7                0.95               0.006       446
       60                 0.9                0.65                0.95               0.006       447
       61                0.95                 0.9                 0.6               0.006       448
       62                0.95                 0.1                 0.9               0.003       458
       63                0.95                0.85                0.85               0.003       463
       64                0.95                0.85                 0.8               0.006       464
       65                0.95                0.85                0.75               0.006       465
       66                0.95                0.85                 0.7               0.006       466
       67                0.95                0.85                0.65               0.006       467
       68                0.95                0.85                 0.6               0.003       468
       69                0.95                0.85                0.15               0.003       477
       70                 0.9                 0.9                0.15               0.003       478
       71                0.95                 0.8                 0.8               0.003       484
       72                0.95                 0.8                0.75               0.006       485
       73                 0.8                 0.7                0.95               0.006       486
       74                 0.8                0.65                0.95               0.006       487
       75                0.95                 0.8                 0.2               0.003       496
       76                 0.9                0.85                 0.2               0.006       497
       77                0.95                0.75                0.75               0.003       505
       78                0.75                 0.7                0.95               0.006       506
       79                0.75                0.65                0.95               0.003       507
       80                0.95                0.75                0.25               0.003       515
       81                 0.9                 0.8                0.25               0.006       516
       82                0.85                0.85                0.25               0.003       517
       83                0.95                 0.7                 0.7               0.003       526
       84                0.95                 0.7                 0.3               0.003       534
       85                 0.9                0.75                 0.3               0.006       535
       86                0.85                 0.8                 0.3               0.006       536
       87                0.95                0.65                0.35               0.003       553
       88                 0.9                 0.7                0.35               0.006       554
       89                0.85                0.75                0.35               0.006       555
       90                 0.8                 0.8                0.35               0.003       556
       91                0.95                 0.6                 0.4               0.003       572
       92                 0.9                0.65                 0.4               0.006       573
       93                0.85                 0.7                 0.4               0.006       574
       94                 0.8                0.75                 0.4               0.006       575
       95                0.95                0.55                0.45               0.003       591
       96                 0.9                 0.6                0.45               0.006       592
       97                0.85                0.65                0.45               0.006       593
       98                 0.8                 0.7                0.45               0.006       594
       99                0.75                0.75                0.45               0.003       595
      100                0.95                 0.5                 0.5              0.0015       610
      101                 0.9                0.55                 0.5               0.006       611
      102                0.85                 0.6                 0.5               0.006       612
      103                 0.8                0.65                 0.5               0.006       613
      104                0.75                 0.7                 0.5               0.006       614
      105                0.55                0.55                0.85               0.003       631
      106                 0.8                0.55                 0.6               0.006       632
      107                0.75                0.65                0.55               0.006       633
      108                 0.7                 0.7                0.55               0.003       634
      109                0.75                 0.6                 0.6               0.003       652
      110                 0.7                0.65                 0.6               0.006       653
      111                0.65                0.65                0.65               0.001       673
      112                 0.9                 0.9                 0.9               0.001       842
      113                 0.9                 0.9                0.85               0.003       843
      114                 0.9                 0.9                 0.8               0.003       844
      115                 0.9                 0.9                0.75               0.003       845
      116                 0.9                 0.7                 0.9               0.003       846
      117                 0.9                0.65                 0.9               0.003       847
      118                 0.9                 0.9                 0.6              0.0015       848
      119                 0.9                 0.9                 0.1             0.00075       858
      120                 0.9                0.85                0.85               0.003       863
      121                 0.9                0.85                 0.8               0.006       864
      122                 0.9                0.85                0.75               0.006       865
      123                 0.9                0.85                 0.7               0.006       866
      124                 0.9                0.85                0.65               0.006       867
      125                 0.9                0.85                0.15               0.003       877
      126                 0.9                 0.8                 0.8               0.003       884
      127                 0.9                 0.8                0.75               0.006       885
      128                 0.9                 0.8                 0.7               0.006       886
      129                 0.9                 0.8                0.65               0.003       887
      130                 0.9                 0.8                 0.2               0.003       896
      131                0.85                0.85                 0.2               0.003       897
      132                 0.9                0.75                0.75               0.003       905
      133                 0.9                0.75                 0.7               0.006       906
      134                 0.9                0.75                0.25               0.003       915
      135                0.85                 0.8                0.25               0.006       916
      136                 0.9                 0.7                 0.7               0.001       926
      137                 0.9                 0.7                 0.3               0.003       934
      138                0.85                0.75                 0.3               0.006       935
      139                 0.8                 0.8                 0.3               0.003       936
      140                 0.9                0.65                0.35               0.003       953
      141                0.85                 0.7                0.35               0.006       954
      142                 0.8                0.75                0.35               0.006       955
      143                 0.9                 0.6                 0.4               0.003       972
      144                0.85                0.65                 0.4               0.006       973
      145                 0.8                 0.7                 0.4               0.006       974
      146                0.75                0.75                 0.4               0.003       975
      147                 0.9                0.45                0.55               0.003       991
      148                0.85                 0.6                0.45               0.006       992
      149                 0.8                0.65                0.45               0.006       993
      150                0.75                 0.7                0.45               0.006       994
      151                 0.9                 0.5                 0.5              0.0015      1010
      152                0.85                0.55                 0.5               0.006      1011
      153                 0.8                 0.6                 0.5               0.006      1012
      154                0.75                0.65                 0.5               0.006      1013
      155                 0.7                 0.7                 0.5               0.003      1014
      156                 0.8                0.55                0.55               0.003      1031
      157                0.75                 0.6                0.55               0.006      1032
      158                 0.7                0.65                0.55               0.006      1033
      159                 0.7                 0.6                 0.6               0.003      1052
      160                0.65                0.65                 0.6               0.003      1053
      161                0.85                0.85                0.85               0.001      1263
      162                0.85                0.85                 0.8               0.003      1264
      163                0.85                0.85                0.75               0.003      1265
      164                0.85                0.85                 0.7               0.003      1266
      165                0.85                0.85                0.65              0.0015      1267
      166                0.85                0.85                0.15             0.00075      1277
      167                0.85                 0.8                 0.8               0.003      1284
      168                0.85                 0.8                0.75               0.006      1285
      169                0.85                 0.8                 0.7               0.006      1286
      170                0.85                 0.8                 0.2               0.003      1296
      171                0.85                0.75                0.75               0.003      1305
      172                0.85                0.75                 0.7               0.003      1306
      173                0.85                0.75                0.25               0.003      1315
      174                 0.8                 0.8                0.25               0.003      1316
      175                0.85                 0.7                 0.3               0.003      1334
      176                 0.8                0.75                 0.3               0.006      1335
      177                0.85                0.65                0.35               0.003      1353
      178                 0.8                 0.7                0.35               0.006      1354
      179                0.75                0.75                0.35               0.003      1355
      180                0.85                 0.6                 0.4               0.003      1372
      181                 0.8                0.65                 0.4               0.006      1373
      182                0.75                 0.7                 0.4               0.006      1374
      183                0.85                0.55                0.45               0.003      1391
      184                 0.8                 0.6                0.45               0.006      1392
      185                0.75                0.65                0.45               0.006      1393
      186                 0.7                 0.7                0.45               0.003      1394
      187                0.85                 0.5                 0.5              0.0015      1410
      188                 0.8                0.55                 0.5               0.006      1411
      189                0.75                 0.6                 0.5               0.006      1412
      190                 0.7                0.65                 0.5               0.006      1413
      191                0.75                0.55                0.55               0.003      1431
      192                 0.6                0.55                 0.7               0.006      1432
      193                0.65                0.65                0.55               0.003      1433
      194                0.65                 0.6                 0.6               0.003      1452
      195                 0.8                 0.8                 0.8               0.001      1684
      196                 0.8                 0.8                0.75               0.003      1685
      197                 0.8                 0.8                 0.7              0.0015      1686
      198                 0.8                 0.8                 0.2             0.00075      1696
      199                 0.8                0.75                0.75               0.003      1705
      200                 0.8                0.75                0.25               0.003      1715
      201                 0.8                 0.7                 0.3               0.003      1734
      202                0.75                0.75                 0.3               0.003      1735
      203                 0.8                0.65                0.35               0.003      1753
      204                0.75                 0.7                0.35               0.006      1754
      205                 0.8                 0.6                 0.4               0.003      1772
      206                0.75                0.65                 0.4               0.006      1773
      207                 0.7                 0.7                 0.4               0.003      1774
      208                 0.8                0.45                0.55               0.003      1791
      209                0.75                 0.6                0.45               0.006      1792
      210                 0.7                0.65                0.45               0.006      1793
      211                 0.8                 0.5                 0.5              0.0015      1810
      212                0.75                0.55                 0.5               0.006      1811
      213                 0.7                 0.5                 0.6               0.006      1812
      214                0.65                0.65                 0.5               0.003      1813
      215                 0.7                0.55                0.55               0.003      1831
      216                 0.6                0.55                0.65               0.006      1832
      217                 0.6                 0.6                 0.6               0.001      1852
      218                0.75                0.75                0.75             0.00025      2105
      219                0.75                0.75                0.25             0.00075      2115
      220                0.75                 0.7                 0.3               0.003      2134
      221                0.75                0.65                0.35               0.003      2153
      222                 0.7                 0.7                0.35               0.003      2154
      223                0.75                 0.6                 0.4               0.003      2172
      224                 0.7                0.65                 0.4               0.006      2173
      225                0.75                0.45                0.55               0.003      2191
      226                 0.6                0.45                 0.7               0.006      2192
      227                0.65                0.65                0.45               0.003      2193
      228                0.75                 0.5                 0.5              0.0015      2210
      229                 0.7                0.55                 0.5               0.006      2211
      230                0.65                 0.5                 0.6               0.006      2212
      231                0.65                0.55                0.55               0.003      2231
      232                 0.6                 0.6                0.55               0.003      2232
      233                 0.7                 0.7                 0.3             0.00075      2534
      234                 0.7                0.65                0.35               0.003      2553
      235                 0.6                 0.4                 0.7               0.003      2572
      236                0.65                0.65                 0.4               0.003      2573
      237                0.55                0.45                 0.7               0.003      2591
      238                 0.6                0.45                0.65               0.006      2592
      239                 0.7                 0.5                 0.5              0.0015      2610
      240                0.65                0.55                 0.5               0.006      2611
      241                 0.6                 0.6                 0.5               0.003      2612
      242                 0.6                0.55                0.55               0.003      2631
      243                0.65                0.65                0.35             0.00075      2953
      244                 0.6                 0.4                0.65               0.003      2972
      245                0.55                0.45                0.65               0.003      2991
      246                 0.6                 0.6                0.45               0.003      2992
      247                0.65                 0.5                 0.5              0.0015      3010
      248                 0.6                0.55                 0.5               0.006      3011
      249                0.55                0.55                0.55               0.001      3031
      250                 0.6                 0.6                 0.4             0.00075      3372
      251                 0.6                0.55                0.45               0.003      3391
      252                 0.6                 0.5                 0.5              0.0015      3410
      253                0.55                0.55                 0.5               0.003      3411
      254                0.55                0.55                0.45             0.00075      3791
      255                0.55                 0.5                 0.5              0.0015      3810
      256                 0.5                 0.5                 0.5            0.000125      4210
                               nkstot now = 256

  KPOINTS            DIRECT_X            DIRECT_Y            DIRECT_Z              WEIGHT
        1                   0                   0                   0            0.000125
        2                0.95                0.05                   0              0.0015
        3                 0.9                 0.1                   0              0.0015
        4                0.85                0.15                   0              0.0015
        5                 0.8                 0.2                   0              0.0015
        6                0.75                0.25                   0              0.0015
        7                 0.7                 0.3                   0              0.0015
        8                0.65                0.35                   0              0.0015
        9                 0.6                 0.4                   0              0.0015
       10                0.55                0.45                   0              0.0015
       11                 0.5                 0.5                   0             0.00075
       12                0.95                0.95                 0.1               0.003
       13                0.95                 0.9                0.15               0.006
       14                0.95                0.85                 0.2               0.006
       15                0.95                 0.8                0.25               0.006
       16                0.95                0.75                 0.3               0.006
       17                0.95                 0.7                0.35               0.006
       18                0.95                 0.4                0.65               0.006
       19                0.95                 0.6                0.45               0.006
       20                0.95                0.55                 0.5               0.006
       21                 0.9                 0.9                 0.2               0.003
       22                 0.9                0.85                0.25               0.006
       23                 0.9                 0.8                 0.3               0.006
       24                 0.9                0.75                0.35               0.006
       25                 0.9                 0.7                 0.4               0.006
       26                 0.9                0.45                0.65               0.006
       27                 0.9                 0.6                 0.5               0.006
       28                 0.9                0.55                0.55               0.003
       29                0.85                0.85                 0.3               0.003
       30                0.85                 0.8                0.35               0.006
       31                0.85                0.75                 0.4               0.006
       32                0.85                 0.7                0.45               0.006
       33                0.85                0.65                 0.5               0.006
       34                0.85                 0.6                0.55               0.006
       35                 0.8                 0.8                 0.4               0.003
       36                 0.8                0.75                0.45               0.006
       37                 0.8                 0.7                 0.5               0.006
       38                 0.8                0.65                0.55               0.006
       39                 0.6                 0.6                 0.8               0.003
       40                0.75                0.75                 0.5               0.003
       41                0.75                 0.7                0.55               0.006
       42                0.75                0.65                 0.6               0.006
       43                 0.7                 0.7                 0.6               0.003
       44                 0.7                0.65                0.65               0.003
       45                0.95                0.95                0.95               0.001
       46                0.95                0.95                 0.9               0.003
       47                0.95                0.95                0.85               0.003
       48                0.95                0.95                 0.8               0.003
       49                0.95                0.95                0.75               0.003
       50                0.95                0.95                 0.7               0.003
       51                0.95                0.95                0.65               0.003
       52                0.95                0.95                 0.6               0.003
       53                0.95                0.95                0.55              0.0015
       54                0.95                0.95                0.05             0.00075
       55                0.95                 0.9                 0.9               0.003
       56                0.95                0.85                 0.9               0.006
       57                0.95                 0.9                 0.8               0.006
       58                0.95                 0.9                0.75               0.006
       59                 0.9                 0.7                0.95               0.006
       60                 0.9                0.65                0.95               0.006
       61                0.95                 0.9                 0.6               0.006
       62                0.95                 0.1                 0.9               0.003
       63                0.95                0.85                0.85               0.003
       64                0.95                0.85                 0.8               0.006
       65                0.95                0.85                0.75               0.006
       66                0.95                0.85                 0.7               0.006
       67                0.95                0.85                0.65               0.006
       68                0.95                0.85                 0.6               0.003
       69                0.95                0.85                0.15               0.003
       70                 0.9                 0.9                0.15               0.003
       71                0.95                 0.8                 0.8               0.003
       72                0.95                 0.8                0.75               0.006
       73                 0.8                 0.7                0.95               0.006
       74                 0.8                0.65                0.95               0.006
       75                0.95                 0.8                 0.2               0.003
       76                 0.9                0.85                 0.2               0.006
       77                0.95                0.75                0.75               0.003
       78                0.75                 0.7                0.95               0.006
       79                0.75                0.65                0.95               0.003
       80                0.95                0.75                0.25               0.003
       81                 0.9                 0.8                0.25               0.006
       82                0.85                0.85                0.25               0.003
       83                0.95                 0.7                 0.7               0.003
       84                0.95                 0.7                 0.3               0.003
       85                 0.9                0.75                 0.3               0.006
       86                0.85                 0.8                 0.3               0.006
       87                0.95                0.65                0.35               0.003
       88                 0.9                 0.7                0.35               0.006
       89                0.85                0.75                0.35               0.006
       90                 0.8                 0.8                0.35               0.003
       91                0.95                 0.6                 0.4               0.003
       92                 0.9                0.65                 0.4               0.006
       93                0.85                 0.7                 0.4               0.006
       94                 0.8                0.75                 0.4               0.006
       95                0.95                0.55                0.45               0.003
       96                 0.9                 0.6                0.45               0.006
       97                0.85                0.65                0.45               0.006
       98                 0.8                 0.7                0.45               0.006
       99                0.75                0.75                0.45               0.003
      100                0.95                 0.5                 0.5              0.0015
      101                 0.9                0.55                 0.5               0.006
      102                0.85                 0.6                 0.5               0.006
      103                 0.8                0.65                 0.5               0.006
      104                0.75                 0.7                 0.5               0.006
      105                0.55                0.55                0.85               0.003
      106                 0.8                0.55                 0.6               0.006
      107                0.75                0.65                0.55               0.006
      108                 0.7                 0.7                0.55               0.003
      109                0.75                 0.6                 0.6               0.003
      110                 0.7                0.65                 0.6               0.006
      111                0.65                0.65                0.65               0.001
      112                 0.9                 0.9                 0.9               0.001
      113                 0.9                 0.9                0.85               0.003
      114                 0.9                 0.9                 0.8               0.003
      115                 0.9                 0.9                0.75               0.003
      116                 0.9                 0.7                 0.9               0.003
      117                 0.9                0.65                 0.9               0.003
      118                 0.9                 0.9                 0.6              0.0015
      119                 0.9                 0.9                 0.1             0.00075
      120                 0.9                0.85                0.85               0.003
      121                 0.9                0.85                 0.8               0.006
      122                 0.9                0.85                0.75               0.006
      123                 0.9                0.85                 0.7               0.006
      124                 0.9                0.85                0.65               0.006
      125                 0.9                0.85                0.15               0.003
      126                 0.9                 0.8                 0.8               0.003
      127                 0.9                 0.8                0.75               0.006
      128                 0.9                 0.8                 0.7               0.006
      129                 0.9                 0.8                0.65               0.003
      130                 0.9                 0.8                 0.2               0.003
      131                0.85                0.85                 0.2               0.003
      132                 0.9                0.75                0.75               0.003
      133                 0.9                0.75                 0.7               0.006
      134                 0.9                0.75                0.25               0.003
      135                0.85                 0.8                0.25               0.006
      136                 0.9                 0.7                 0.7               0.001
      137                 0.9                 0.7                 0.3               0.003
      138                0.85                0.75                 0.3               0.006
      139                 0.8                 0.8                 0.3               0.003
      140                 0.9                0.65                0.35               0.003
      141                0.85                 0.7                0.35               0.006
      142                 0.8                0.75                0.35               0.006
      143                 0.9                 0.6                 0.4               0.003
      144                0.85                0.65                 0.4               0.006
      145                 0.8                 0.7                 0.4               0.006
      146                0.75                0.75                 0.4               0.003
      147                 0.9                0.45                0.55               0.003
      148                0.85                 0.6                0.45               0.006
      149                 0.8                0.65                0.45               0.006
      150                0.75                 0.7                0.45               0.006
      151                 0.9                 0.5                 0.5              0.0015
      152                0.85                0.55                 0.5               0.006
      153                 0.8                 0.6                 0.5               0.006
      154                0.75                0.65                 0.5               0.006
      155                 0.7                 0.7                 0.5               0.003
      156                 0.8                0.55                0.55               0.003
      157                0.75                 0.6                0.55               0.006
      158                 0.7                0.65                0.55               0.006
      159                 0.7                 0.6                 0.6               0.003
      160                0.65                0.65                 0.6               0.003
      161                0.85                0.85                0.85               0.001
      162                0.85                0.85                 0.8               0.003
      163                0.85                0.85                0.75               0.003
      164                0.85                0.85                 0.7               0.003
      165                0.85                0.85                0.65              0.0015
      166                0.85                0.85                0.15             0.00075
      167                0.85                 0.8                 0.8               0.003
      168                0.85                 0.8                0.75               0.006
      169                0.85                 0.8                 0.7               0.006
      170                0.85                 0.8                 0.2               0.003
      171                0.85                0.75                0.75               0.003
      172                0.85                0.75                 0.7               0.003
      173                0.85                0.75                0.25               0.003
      174                 0.8                 0.8                0.25               0.003
      175                0.85                 0.7                 0.3               0.003
      176                 0.8                0.75                 0.3               0.006
      177                0.85                0.65                0.35               0.003
      178                 0.8                 0.7                0.35               0.006
      179                0.75                0.75                0.35               0.003
      180                0.85                 0.6                 0.4               0.003
      181                 0.8                0.65                 0.4               0.006
      182                0.75                 0.7                 0.4               0.006
      183                0.85                0.55                0.45               0.003
      184                 0.8                 0.6                0.45               0.006
      185                0.75                0.65                0.45               0.006
      186                 0.7                 0.7                0.45               0.003
      187                0.85                 0.5                 0.5              0.0015
      188                 0.8                0.55                 0.5               0.006
      189                0.75                 0.6                 0.5               0.006
      190                 0.7                0.65                 0.5               0.006
      191                0.75                0.55                0.55               0.003
      192                 0.6                0.55                 0.7               0.006
      193                0.65                0.65                0.55               0.003
      194                0.65                 0.6                 0.6               0.003
      195                 0.8                 0.8                 0.8               0.001
      196                 0.8                 0.8                0.75               0.003
      197                 0.8                 0.8                 0.7              0.0015
      198                 0.8                 0.8                 0.2             0.00075
      199                 0.8                0.75                0.75               0.003
      200                 0.8                0.75                0.25               0.003
      201                 0.8                 0.7                 0.3               0.003
      202                0.75                0.75                 0.3               0.003
      203                 0.8                0.65                0.35               0.003
      204                0.75                 0.7                0.35               0.006
      205                 0.8                 0.6                 0.4               0.003
      206                0.75                0.65                 0.4               0.006
      207                 0.7                 0.7                 0.4               0.003
      208                 0.8                0.45                0.55               0.003
      209                0.75                 0.6                0.45               0.006
      210                 0.7                0.65                0.45               0.006
      211                 0.8                 0.5                 0.5              0.0015
      212                0.75                0.55                 0.5               0.006
      213                 0.7                 0.5                 0.6               0.006
      214                0.65                0.65                 0.5               0.003
      215                 0.7                0.55                0.55               0.003
      216                 0.6                0.55                0.65               0.006
      217                 0.6                 0.6                 0.6               0.001
      218                0.75                0.75                0.75             0.00025
      219                0.75                0.75                0.25             0.00075
      220                0.75                 0.7                 0.3               0.003
      221                0.75                0.65                0.35               0.003
      222                 0.7                 0.7                0.35               0.003
      223                0.75                 0.6                 0.4               0.003
      224                 0.7                0.65                 0.4               0.006
      225                0.75                0.45                0.55               0.003
      226                 0.6                0.45                 0.7               0.006
      227                0.65                0.65                0.45               0.003
      228                0.75                 0.5                 0.5              0.0015
      229                 0.7                0.55                 0.5               0.006
      230                0.65                 0.5                 0.6               0.006
      231                0.65                0.55                0.55               0.003
      232                 0.6                 0.6                0.55               0.003
      233                 0.7                 0.7                 0.3             0.00075
      234                 0.7                0.65                0.35               0.003
      235                 0.6                 0.4                 0.7               0.003
      236                0.65                0.65                 0.4               0.003
      237                0.55                0.45                 0.7               0.003
      238                 0.6                0.45                0.65               0.006
      239                 0.7                 0.5                 0.5              0.0015
      240                0.65                0.55                 0.5               0.006
      241                 0.6                 0.6                 0.5               0.003
      242                 0.6                0.55                0.55               0.003
      243                0.65                0.65                0.35             0.00075
      244                 0.6                 0.4                0.65               0.003
      245                0.55                0.45                0.65               0.003
      246                 0.6                 0.6                0.45               0.003
      247                0.65                 0.5                 0.5              0.0015
      248                 0.6                0.55                 0.5               0.006
      249                0.55                0.55                0.55               0.001
      250                 0.6                 0.6                 0.4             0.00075
      251                 0.6                0.55                0.45               0.003
      252                 0.6                 0.5                 0.5              0.0015
      253                0.55                0.55                 0.5               0.003
      254                0.55                0.55                0.45             0.00075
      255                0.55                 0.5                 0.5              0.0015
      256                 0.5                 0.5                 0.5            0.000125

           k-point number in this process = 256
       minimum distributed K point number = 256

  KPOINTS         CARTESIAN_X         CARTESIAN_Y         CARTESIAN_Z              WEIGHT
        1                   0                   0                   0             0.00025
        2                0.05                0.95                   1               0.003
        3                 0.1                 0.9                   1               0.003
        4                0.15                0.85                   1               0.003
        5                 0.2                 0.8                   1               0.003
        6                0.25                0.75                   1               0.003
        7                 0.3                 0.7                   1               0.003
        8                0.35                0.65                   1               0.003
        9                 0.4                 0.6                   1               0.003
       10                0.45                0.55                   1               0.003
       11                 0.5                 0.5                   1              0.0015
       12                1.05                1.05                 1.9               0.006
       13                1.05                 1.1                1.85               0.012
       14                1.05                1.15                 1.8               0.012
       15                1.05                 1.2                1.75               0.012
       16                1.05                1.25                 1.7               0.012
       17                1.05                 1.3                1.65               0.012
       18                1.05                 1.6                1.35               0.012
       19                1.05                 1.4                1.55               0.012
       20                1.05                1.45                 1.5               0.012
       21                 1.1                 1.1                 1.8               0.006
       22                 1.1                1.15                1.75               0.012
       23                 1.1                 1.2                 1.7               0.012
       24                 1.1                1.25                1.65               0.012
       25                 1.1                 1.3                 1.6               0.012
       26                 1.1                1.55                1.35               0.012
       27                 1.1                 1.4                 1.5               0.012
       28                 1.1                1.45                1.45               0.006
       29                1.15                1.15                 1.7               0.006
       30                1.15                 1.2                1.65               0.012
       31                1.15                1.25                 1.6               0.012
       32                1.15                 1.3                1.55               0.012
       33                1.15                1.35                 1.5               0.012
       34                1.15                 1.4                1.45               0.012
       35                 1.2                 1.2                 1.6               0.006
       36                 1.2                1.25                1.55               0.012
       37                 1.2                 1.3                 1.5               0.012
       38                 1.2                1.35                1.45               0.012
       39                 1.4                 1.4                 1.2               0.006
       40                1.25                1.25                 1.5               0.006
       41                1.25                 1.3                1.45               0.012
       42                1.25                1.35                 1.4               0.012
       43                 1.3                 1.3                 1.4               0.006
       44                 1.3                1.35                1.35               0.006
       45                 1.9                 1.9                 1.9               0.002
       46                1.85                1.85                 1.9               0.006
       47                 1.8                 1.8                 1.9               0.006
       48                1.75                1.75                 1.9               0.006
       49                 1.7                 1.7                 1.9               0.006
       50                1.65                1.65                 1.9               0.006
       51                 1.6                 1.6                 1.9               0.006
       52                1.55                1.55                 1.9               0.006
       53                 1.5                 1.5                 1.9               0.003
       54                   1                   1                 1.9              0.0015
       55                 1.8                1.85                1.85               0.006
       56                1.75                1.85                 1.8               0.012
       57                 1.7                1.75                1.85               0.012
       58                1.65                 1.7                1.85               0.012
       59                1.65                1.85                 1.6               0.012
       60                 1.6                1.85                1.55               0.012
       61                 1.5                1.55                1.85               0.012
       62                   1                1.85                1.05               0.006
       63                 1.7                 1.8                 1.8               0.006
       64                1.65                1.75                 1.8               0.012
       65                 1.6                 1.7                 1.8               0.012
       66                1.55                1.65                 1.8               0.012
       67                 1.5                 1.6                 1.8               0.012
       68                1.45                1.55                 1.8               0.006
       69                   1                 1.1                 1.8               0.006
       70                1.05                1.05                 1.8               0.006
       71                 1.6                1.75                1.75               0.006
       72                1.55                 1.7                1.75               0.012
       73                1.65                1.75                 1.5               0.012
       74                 1.6                1.75                1.45               0.012
       75                   1                1.15                1.75               0.006
       76                1.05                 1.1                1.75               0.012
       77                 1.5                 1.7                 1.7               0.006
       78                1.65                 1.7                1.45               0.012
       79                 1.6                 1.7                 1.4               0.006
       80                   1                 1.2                 1.7               0.006
       81                1.05                1.15                 1.7               0.012
       82                 1.1                 1.1                 1.7               0.006
       83                 1.4                1.65                1.65               0.006
       84                   1                1.25                1.65               0.006
       85                1.05                 1.2                1.65               0.012
       86                 1.1                1.15                1.65               0.012
       87                   1                 1.3                 1.6               0.006
       88                1.05                1.25                 1.6               0.012
       89                 1.1                 1.2                 1.6               0.012
       90                1.15                1.15                 1.6               0.006
       91                   1                1.35                1.55               0.006
       92                1.05                 1.3                1.55               0.012
       93                 1.1                1.25                1.55               0.012
       94                1.15                 1.2                1.55               0.012
       95                   1                 1.4                 1.5               0.006
       96                1.05                1.35                 1.5               0.012
       97                 1.1                 1.3                 1.5               0.012
       98                1.15                1.25                 1.5               0.012
       99                 1.2                 1.2                 1.5               0.006
      100                   1                1.45                1.45               0.003
      101                1.05                 1.4                1.45               0.012
      102                 1.1                1.35                1.45               0.012
      103                1.15                 1.3                1.45               0.012
      104                 1.2                1.25                1.45               0.012
      105                 1.4                 1.4                 1.1               0.006
      106                1.15                 1.4                1.35               0.012
      107                 1.2                 1.3                 1.4               0.012
      108                1.25                1.25                 1.4               0.006
      109                 1.2                1.35                1.35               0.006
      110                1.25                 1.3                1.35               0.012
      111                 1.3                 1.3                 1.3               0.002
      112                 1.8                 1.8                 1.8               0.002
      113                1.75                1.75                 1.8               0.006
      114                 1.7                 1.7                 1.8               0.006
      115                1.65                1.65                 1.8               0.006
      116                 1.6                 1.8                 1.6               0.006
      117                1.55                 1.8                1.55               0.006
      118                 1.5                 1.5                 1.8               0.003
      119                   1                   1                 1.8              0.0015
      120                 1.7                1.75                1.75               0.006
      121                1.65                 1.7                1.75               0.012
      122                 1.6                1.65                1.75               0.012
      123                1.55                 1.6                1.75               0.012
      124                 1.5                1.55                1.75               0.012
      125                   1                1.05                1.75               0.006
      126                 1.6                 1.7                 1.7               0.006
      127                1.55                1.65                 1.7               0.012
      128                 1.5                 1.6                 1.7               0.012
      129                1.45                1.55                 1.7               0.006
      130                   1                 1.1                 1.7               0.006
      131                1.05                1.05                 1.7               0.006
      132                 1.5                1.65                1.65               0.006
      133                1.45                 1.6                1.65               0.012
      134                   1                1.15                1.65               0.006
      135                1.05                 1.1                1.65               0.012
      136                 1.4                 1.6                 1.6               0.002
      137                   1                 1.2                 1.6               0.006
      138                1.05                1.15                 1.6               0.012
      139                 1.1                 1.1                 1.6               0.006
      140                   1                1.25                1.55               0.006
      141                1.05                 1.2                1.55               0.012
      142                 1.1                1.15                1.55               0.012
      143                   1                 1.3                 1.5               0.006
      144                1.05                1.25                 1.5               0.012
      145                 1.1                 1.2                 1.5               0.012
      146                1.15                1.15                 1.5               0.006
      147                   1                1.45                1.35               0.006
      148                1.05                 1.3                1.45               0.012
      149                 1.1                1.25                1.45               0.012
      150                1.15                 1.2                1.45               0.012
      151                   1                 1.4                 1.4               0.003
      152                1.05                1.35                 1.4               0.012
      153                 1.1                 1.3                 1.4               0.012
      154                1.15                1.25                 1.4               0.012
      155                 1.2                 1.2                 1.4               0.006
      156                 1.1                1.35                1.35               0.006
      157                1.15                 1.3                1.35               0.012
      158                 1.2                1.25                1.35               0.012
      159                 1.2                 1.3                 1.3               0.006
      160                1.25                1.25                 1.3               0.006
      161                 1.7                 1.7                 1.7               0.002
      162                1.65                1.65                 1.7               0.006
      163                 1.6                 1.6                 1.7               0.006
      164                1.55                1.55                 1.7               0.006
      165                 1.5                 1.5                 1.7               0.003
      166                   1                   1                 1.7              0.0015
      167                 1.6                1.65                1.65               0.006
      168                1.55                 1.6                1.65               0.012
      169                 1.5                1.55                1.65               0.012
      170                   1                1.05                1.65               0.006
      171                 1.5                 1.6                 1.6               0.006
      172                1.45                1.55                 1.6               0.006
      173                   1                 1.1                 1.6               0.006
      174                1.05                1.05                 1.6               0.006
      175                   1                1.15                1.55               0.006
      176                1.05                 1.1                1.55               0.012
      177                   1                 1.2                 1.5               0.006
      178                1.05                1.15                 1.5               0.012
      179                 1.1                 1.1                 1.5               0.006
      180                   1                1.25                1.45               0.006
      181                1.05                 1.2                1.45               0.012
      182                 1.1                1.15                1.45               0.012
      183                   1                 1.3                 1.4               0.006
      184                1.05                1.25                 1.4               0.012
      185                 1.1                 1.2                 1.4               0.012
      186                1.15                1.15                 1.4               0.006
      187                   1                1.35                1.35               0.003
      188                1.05                 1.3                1.35               0.012
      189                 1.1                1.25                1.35               0.012
      190                1.15                 1.2                1.35               0.012
      191                 1.1                 1.3                 1.3               0.006
      192                1.25                 1.3                1.15               0.012
      193                 1.2                 1.2                 1.3               0.006
      194                 1.2                1.25                1.25               0.006
      195                 1.6                 1.6                 1.6               0.002
      196                1.55                1.55                 1.6               0.006
      197                 1.5                 1.5                 1.6               0.003
      198                   1                   1                 1.6              0.0015
      199                 1.5                1.55                1.55               0.006
      200                   1                1.05                1.55               0.006
      201                   1                 1.1                 1.5               0.006
      202                1.05                1.05                 1.5               0.006
      203                   1                1.15                1.45               0.006
      204                1.05                 1.1                1.45               0.012
      205                   1                 1.2                 1.4               0.006
      206                1.05                1.15                 1.4               0.012
      207                 1.1                 1.1                 1.4               0.006
      208                   1                1.35                1.25               0.006
      209                1.05                 1.2                1.35               0.012
      210                 1.1                1.15                1.35               0.012
      211                   1                 1.3                 1.3               0.003
      212                1.05                1.25                 1.3               0.012
      213                 1.1                 1.3                 1.2               0.012
      214                1.15                1.15                 1.3               0.006
      215                 1.1                1.25                1.25               0.006
      216                 1.2                1.25                1.15               0.012
      217                 1.2                 1.2                 1.2               0.002
      218                 1.5                 1.5                 1.5              0.0005
      219                   1                   1                 1.5              0.0015
      220                   1                1.05                1.45               0.006
      221                   1                 1.1                 1.4               0.006
      222                1.05                1.05                 1.4               0.006
      223                   1                1.15                1.35               0.006
      224                1.05                 1.1                1.35               0.012
      225                   1                 1.3                 1.2               0.006
      226                1.15                 1.3                1.05               0.012
      227                 1.1                 1.1                 1.3               0.006
      228                   1                1.25                1.25               0.003
      229                1.05                 1.2                1.25               0.012
      230                 1.1                1.25                1.15               0.012
      231                 1.1                 1.2                 1.2               0.006
[...]
       1       -1.08580     0.00600000
       2        10.2653        0.00000
       3        10.9511        0.00000
       4        12.1158        0.00000
       5        13.3614        0.00000
       6        20.1799        0.00000

 201/256 kpoint (Cartesian) = 1.00000 1.10000 1.50000 (1230 pws)
       1      -0.454100     0.00600000
       2        8.69435        0.00000
       3        10.4288        0.00000
       4        11.7984        0.00000
       5        13.7124        0.00000
       6        19.7002        0.00000

 202/256 kpoint (Cartesian) = 1.05000 1.05000 1.50000 (1227 pws)
       1      -0.511377     0.00600000
       2        9.54064        0.00000
       3        9.88125        0.00000
       4        11.9992        0.00000
       5        12.9955        0.00000
       6        20.0652        0.00000

 203/256 kpoint (Cartesian) = 1.00000 1.15000 1.45000 (1226 pws)
       1       0.290765     0.00600000
       2        7.18512        0.00000
       3        10.0225        0.00000
       4        11.4610        0.00000
       5        14.3523        0.00000
       6        19.3079        0.00000

 204/256 kpoint (Cartesian) = 1.05000 1.10000 1.45000 (1231 pws)
       1       0.176724      0.0120000
       2        8.15564        0.00000
       3        9.30261        0.00000
       4        11.8724        0.00000
       5        13.2525        0.00000
       6        19.6312        0.00000

 205/256 kpoint (Cartesian) = 1.00000 1.20000 1.40000 (1229 pws)
       1        1.14615     0.00600000
       2        5.77523        0.00000
       3        9.73224        0.00000
       4        11.2004        0.00000
       5        15.1489        0.00000
       6        19.0238        0.00000

 206/256 kpoint (Cartesian) = 1.05000 1.15000 1.40000 (1229 pws)
       1       0.976926      0.0120000
       2        6.71795        0.00000
       3        8.94561        0.00000
       4        11.6179        0.00000
       5        13.9165        0.00000
       6        19.0679        0.00000

 207/256 kpoint (Cartesian) = 1.10000 1.10000 1.40000 (1230 pws)
       1       0.920394     0.00600000
       2        7.53836        0.00000
       3        8.07450        0.00000
       4        12.2574        0.00000
       5        13.1057        0.00000
       6        19.0144        0.00000

 208/256 kpoint (Cartesian) = 1.00000 1.35000 1.25000 (1229 pws)
       1        2.10035     0.00600000
       2        4.48606        0.00000
       3        9.55806        0.00000
       4        11.0397        0.00000
       5        16.0600        0.00000
       6        18.2306        0.00000

 209/256 kpoint (Cartesian) = 1.05000 1.20000 1.35000 (1224 pws)
       1        1.88425      0.0120000
       2        5.37334        0.00000
       3        8.71165        0.00000
       4        11.4184        0.00000
       5        14.7588        0.00000
       6        18.0450        0.00000

 210/256 kpoint (Cartesian) = 1.10000 1.15000 1.35000 (1225 pws)
       1        1.77424      0.0120000
       2        6.33712        0.00000
       3        7.59850        0.00000
       4        12.2630        0.00000
       5        13.6178        0.00000
       6        17.9344        0.00000

 211/256 kpoint (Cartesian) = 1.00000 1.30000 1.30000 (1224 pws)
       1        2.90717     0.00300000
       2        3.56728     0.00228365
       3        9.49999        0.00000
       4        10.9857        0.00000
       5        16.8844        0.00000
       6        17.3312        0.00000

 212/256 kpoint (Cartesian) = 1.05000 1.25000 1.30000 (1228 pws)
       1        2.86206      0.0120000
       2        4.17476    3.13083e-17
       3        8.59515        0.00000
       4        11.3142        0.00000
       5        15.6912        0.00000
       6        16.9376        0.00000

 213/256 kpoint (Cartesian) = 1.10000 1.30000 1.20000 (1224 pws)
       1        2.72736      0.0120000
       2        5.08051        0.00000
       3        7.40125        0.00000
       4        12.1519        0.00000
       5        14.4673        0.00000
       6        16.7535        0.00000

 214/256 kpoint (Cartesian) = 1.15000 1.15000 1.30000 (1229 pws)
       1        2.67748     0.00600000
       2        5.86300        0.00000
       3        6.51588        0.00000
       4        12.8858        0.00000
       5        13.6122        0.00000
       6        16.6938        0.00000

 215/256 kpoint (Cartesian) = 1.10000 1.25000 1.25000 (1226 pws)
       1        3.54507     0.00507989
       2        4.15748    1.03584e-16
       3        7.33888        0.00000
       4        12.1072        0.00000
       5        15.2018        0.00000
       6        15.9084        0.00000

 216/256 kpoint (Cartesian) = 1.20000 1.25000 1.15000 (1228 pws)
       1        3.65545     0.00358397
       2        4.87772        0.00000
       3        6.19169        0.00000
       4        13.0278        0.00000
       5        14.2520        0.00000
       6        15.5889        0.00000

 217/256 kpoint (Cartesian) = 1.20000 1.20000 1.20000 (1232 pws)
       1        4.53074        0.00000
       2        4.53074        0.00000
       3        5.49952        0.00000
       4        13.8685        0.00000
       5        13.8685        0.00000
       6        14.9637        0.00000

 218/256 kpoint (Cartesian) = 1.50000 1.50000 1.50000 (1220 pws)
       1        4.88714        0.00000
       2        4.88714        0.00000
       3        4.88714        0.00000
       4        6.31549        0.00000
       5        27.3435        0.00000
       6        27.3435        0.00000

 219/256 kpoint (Cartesian) = 1.00000 1.00000 1.50000 (1208 pws)
       1      -0.568683     0.00150000
       2        10.3128        0.00000
       3        10.3128        0.00000
       4        11.1109        0.00000
       5        12.4618        0.00000
       6        21.4895        0.00000

 220/256 kpoint (Cartesian) = 1.00000 1.05000 1.45000 (1221 pws)
       1      0.0624630     0.00600000
       2        9.10805        0.00000
       3        9.79038        0.00000
       4        10.9616        0.00000
       5        12.2828        0.00000
       6        20.7444        0.00000

 221/256 kpoint (Cartesian) = 1.00000 1.10000 1.40000 (1226 pws)
       1       0.806606     0.00600000
       2        7.65564        0.00000
       3        9.38396        0.00000
       4        10.7751        0.00000
       5        12.7199        0.00000
       6        19.3063        0.00000

 222/256 kpoint (Cartesian) = 1.05000 1.05000 1.40000 (1228 pws)
       1       0.749768     0.00600000
       2        8.49466        0.00000
       3        8.84626        0.00000
       4        10.9528        0.00000
       5        12.0176        0.00000
       6        19.2732        0.00000

 223/256 kpoint (Cartesian) = 1.00000 1.15000 1.35000 (1224 pws)
       1        1.66113     0.00600000
       2        6.26562        0.00000
       3        9.09361        0.00000
       4        10.5563        0.00000
       5        13.4604        0.00000
       6        17.9445        0.00000

 224/256 kpoint (Cartesian) = 1.05000 1.10000 1.35000 (1226 pws)
       1        1.54892      0.0120000
       2        7.23123        0.00000
       3        8.38091        0.00000
       4        10.9517        0.00000
       5        12.3638        0.00000
       6        17.8506        0.00000

 225/256 kpoint (Cartesian) = 1.00000 1.30000 1.20000 (1226 pws)
       1        2.61493     0.00600000
       2        4.98450        0.00000
       3        8.91938        0.00000
       4        10.4087        0.00000
       5        14.3501        0.00000
       6        16.6981        0.00000

 226/256 kpoint (Cartesian) = 1.15000 1.30000 1.05000 (1228 pws)
       1        2.45509      0.0120000
       2        5.91572        0.00000
       3        8.13886        0.00000
       4        10.8164        0.00000
       5        13.1191        0.00000
       6        16.5338        0.00000

 227/256 kpoint (Cartesian) = 1.10000 1.10000 1.30000 (1226 pws)
       1        2.40085     0.00600000
       2        6.72443        0.00000
       3        7.27850        0.00000
       4        11.4438        0.00000
       5        12.3185        0.00000
       6        16.4779        0.00000

 228/256 kpoint (Cartesian) = 1.00000 1.25000 1.25000 (1224 pws)
       1        3.42874     0.00298814
       2        4.06086    7.32508e-13
       3        8.86131        0.00000
       4        10.3579        0.00000
       5        15.0857        0.00000
       6        15.8451        0.00000

 229/256 kpoint (Cartesian) = 1.05000 1.20000 1.25000 (1229 pws)
       1        3.43433      0.0119403
       2        4.72421        0.00000
       3        8.02066        0.00000
       4        10.7282        0.00000
       5        14.0004        0.00000
       6        15.3949        0.00000

 230/256 kpoint (Cartesian) = 1.10000 1.25000 1.15000 (1233 pws)
       1        3.35204      0.0119989
       2        5.65188        0.00000
       3        6.91756        0.00000
       4        11.5664        0.00000
       5        12.8984        0.00000
       6        15.2426        0.00000

 231/256 kpoint (Cartesian) = 1.10000 1.20000 1.20000 (1232 pws)
       1        4.18179    6.99441e-18
       2        4.73530        0.00000
       3        6.84118        0.00000
       4        11.5548        0.00000
       5        13.5199        0.00000
       6        14.4568        0.00000

 232/256 kpoint (Cartesian) = 1.15000 1.15000 1.20000 (1232 pws)
       1        4.32104        0.00000
       2        5.28149        0.00000
       3        6.00354        0.00000
       4        12.3047        0.00000
       5        12.8360        0.00000
       6        14.2043        0.00000

 233/256 kpoint (Cartesian) = 1.00000 1.00000 1.40000 (1232 pws)
       1       0.692841     0.00150000
       2        9.26784        0.00000
       3        9.26784        0.00000
       4        10.0635        0.00000
       5        11.4887        0.00000
       6        19.2477        0.00000

 234/256 kpoint (Cartesian) = 1.00000 1.05000 1.35000 (1231 pws)
       1        1.43593     0.00600000
       2        8.18157        0.00000
       3        8.86134        0.00000
       4        10.0361        0.00000
       5        11.3997        0.00000
       6        17.7615        0.00000

 235/256 kpoint (Cartesian) = 1.10000 1.30000 1.00000 (1239 pws)
       1        2.28911     0.00600000
       2        6.84865        0.00000
       3        8.57094        0.00000
       4        9.97307        0.00000
       5        11.9237        0.00000
       6        16.3767        0.00000

 236/256 kpoint (Cartesian) = 1.05000 1.05000 1.30000 (1234 pws)
       1        2.23348     0.00600000
       2        7.68094        0.00000
       3        8.04052        0.00000
       4        10.1388        0.00000
       5        11.2307        0.00000
       6        16.3225        0.00000

 237/256 kpoint (Cartesian) = 1.15000 1.25000 1.00000 (1231 pws)
       1        3.24196     0.00600000
       2        5.58595        0.00000
       3        8.39669        0.00000
       4        9.86754        0.00000
       5        12.7389        0.00000
       6        15.1314        0.00000

 238/256 kpoint (Cartesian) = 1.10000 1.25000 1.05000 (1236 pws)
       1        3.13763      0.0120000
       2        6.54001        0.00000
       3        7.68994        0.00000
       4        10.2561        0.00000
       5        11.6566        0.00000
       6        15.0068        0.00000

 239/256 kpoint (Cartesian) = 1.00000 1.20000 1.20000 (1228 pws)
       1        4.06547    4.83504e-13
       2        4.65705        0.00000
       3        8.33860        0.00000
       4        9.82560        0.00000
       5        13.4037        0.00000
       6        14.3316        0.00000

 240/256 kpoint (Cartesian) = 1.05000 1.15000 1.20000 (1229 pws)
       1        4.11792    1.29090e-14
       2        5.37192        0.00000
       3        7.56402        0.00000
       4        10.2281        0.00000
       5        12.4198        0.00000
       6        13.9039        0.00000

 241/256 kpoint (Cartesian) = 1.10000 1.10000 1.20000 (1231 pws)
       1        4.08382    1.78150e-13
       2        6.14299        0.00000
       3        6.72218        0.00000
       4        10.8625        0.00000
       5        11.6497        0.00000
       6        13.8048        0.00000

 242/256 kpoint (Cartesian) = 1.10000 1.15000 1.15000 (1231 pws)
       1        4.93257        0.00000
       2        5.36359        0.00000
       3        6.50165        0.00000
       4        11.0555        0.00000
       5        11.9561        0.00000
       6        13.1158        0.00000

 243/256 kpoint (Cartesian) = 1.00000 1.00000 1.30000 (1232 pws)
       1        2.17750     0.00150000
       2        8.45478        0.00000
       3        8.45478        0.00000
       4        9.24881        0.00000
       5        10.7071        0.00000
       6        16.2688        0.00000

 244/256 kpoint (Cartesian) = 1.05000 1.25000 1.00000 (1234 pws)
       1        3.02855     0.00600000
       2        7.48682        0.00000
       3        8.16435        0.00000
       4        9.34003        0.00000
       5        10.7027        0.00000
       6        14.8888        0.00000

 245/256 kpoint (Cartesian) = 1.10000 1.20000 1.00000 (1235 pws)
       1        3.97931    1.14782e-09
       2        6.27881        0.00000
       3        7.99008        0.00000
       4        9.38928        0.00000
       5        11.2834        0.00000
       6        13.6672        0.00000

 246/256 kpoint (Cartesian) = 1.05000 1.05000 1.20000 (1235 pws)
       1        3.92902    3.71137e-08
       2        7.09963        0.00000
       3        7.46620        0.00000
       4        9.55732        0.00000
       5        10.6004        0.00000
       6        13.5955        0.00000

 247/256 kpoint (Cartesian) = 1.00000 1.15000 1.15000 (1236 pws)
       1        4.81625        0.00000
       2        5.34738        0.00000
       3        7.93198        0.00000
       4        9.37786        0.00000
       5        11.8398        0.00000
       6        12.9333        0.00000

 248/256 kpoint (Cartesian) = 1.05000 1.10000 1.15000 (1232 pws)
       1        4.90831        0.00000
       2        6.09645        0.00000
       3        7.23369        0.00000
       4        9.77463        0.00000
       5        10.9889        0.00000
       6        12.5632        0.00000

 249/256 kpoint (Cartesian) = 1.10000 1.10000 1.10000 (1234 pws)
       1        5.79410        0.00000
       2        5.79410        0.00000
       3        6.54606        0.00000
       4        10.5137        0.00000
       5        10.5137        0.00000
       6        12.0621        0.00000

 250/256 kpoint (Cartesian) = 1.00000 1.00000 1.20000 (1244 pws)
       1        3.87621    2.13272e-07
       2        7.87389        0.00000
       3        7.87389        0.00000
       4        8.66689        0.00000
       5        10.0885        0.00000
       6        13.5286        0.00000

 251/256 kpoint (Cartesian) = 1.00000 1.05000 1.15000 (1238 pws)
       1        4.82237        0.00000
       2        7.02583        0.00000
       3        7.69961        0.00000
       4        8.87054        0.00000
       5        10.1052        0.00000
       6        12.3598        0.00000

 252/256 kpoint (Cartesian) = 1.00000 1.10000 1.10000 (1236 pws)
       1        5.67780        0.00000
       2        6.11289        0.00000
       3        7.64151        0.00000
       4        8.98054        0.00000
       5        10.3974        0.00000
       6        11.7312        0.00000

 253/256 kpoint (Cartesian) = 1.05000 1.05000 1.10000 (1238 pws)
       1        5.79125        0.00000
       2        6.75082        0.00000
       3        7.13387        0.00000
       4        9.20840        0.00000
       5        9.83471        0.00000
       6        11.4806        0.00000

 254/256 kpoint (Cartesian) = 1.00000 1.00000 1.10000 (1248 pws)
       1        5.75849        0.00000
       2        7.52532        0.00000
       3        7.52532        0.00000
       4        8.31773        0.00000
       5        9.41258        0.00000
       6        11.3185        0.00000

 255/256 kpoint (Cartesian) = 1.00000 1.05000 1.05000 (1260 pws)
       1        6.63455        0.00000
       2        6.89963        0.00000
       3        7.46722        0.00000
       4        8.55686        0.00000
       5        9.09209        0.00000
       6        10.8654        0.00000

 256/256 kpoint (Cartesian) = 1.00000 1.00000 1.00000 (1264 pws)
       1        7.40912        0.00000
       2        7.40912        0.00000
       3        7.40912        0.00000
       4        8.20134        0.00000
       5        8.20134        0.00000
       6        10.5436        0.00000



 --------------------------------------------
 !FINAL_ETOT_IS -24.21279230536191 eV
 --------------------------------------------






  |CLASS_NAME---------|NAME---------------|TIME(Sec)-----|CALLS----|AVG------|PER%-------
                                      total         175.34        17       10.   1.0e+02%
                 Driver         driver_line         175.33         1   1.8e+02    1.e+02%
               PW_Basis      setuptransform        0.11162         1      0.11     0.064%
             PW_Basis_K      setuptransform        0.10080         1      0.10     0.057%
          ESolver_KS_PW                 Run         174.66         1   1.7e+02    1.e+02%
              Potential  update_from_charge        0.53862        13     0.041      0.31%
              Potential           cal_v_eff        0.53695        13     0.041      0.31%
               PW_Basis          real2recip        0.16360       128    0.0013     0.093%
                  PotXC           cal_v_eff        0.49279        13     0.038      0.28%
          XC_Functional                v_xc         94.518         7       14.       54.%
          XC_Functional          v_xc_libxc        0.49079        13     0.038      0.28%
              HSolverPW               solve         173.95        12       14.       99.%
        DiagoIterAssist      diagH_subspace         38.303      3072     0.012       22.%
             OperatorPW                hPsi         161.23     61323    0.0026       92.%
               Operator          EkineticPW        0.63341     61323   1.0e-05      0.36%
               Operator              VeffPW         160.12     61323    0.0026       91.%
             PW_Basis_K          recip2real         80.281     80082    0.0010       46.%
             PW_Basis_K    gathers_scatterp         5.9920     80082   7.5e-05       3.4%
             PW_Basis_K          real2recip         68.393     76683   0.00089       39.%
             PW_Basis_K    gatherp_scatters         3.1762     76683   4.1e-05       1.8%
        DiagoIterAssist     LAPACK_subspace        0.32057      3072   0.00010      0.18%
                DiagoCG           diag_once         131.02      3072     0.043       75.%
            ElecStatePW            psiToRho         3.6136        12      0.30       2.1%
 ----------------------------------------------------------------------------------------

 CLASS_NAME---------|NAME---------------|MEMORY(MB)--------
                                         36.68
             wavefunc                 psi          29.62
        Charge_Mixing                Rrho          1.648
        Charge_Mixing               dRrho          1.442
        Charge_Mixing                drho          1.442
 ----------------------------------------------------------

 Start  Time  : Wed Dec 28 12:42:27 2022
 Finish Time  : Wed Dec 28 12:45:22 2022
 Total  Time  : 0 h 2 mins 55 secs 
