 *********************************************************
 *                                                       *
 *                  WELCOME TO ABACUS v3.0               *
 *                                                       *
 *            'Atomic-orbital Based Ab-initio            *
 *                  Computation at UStc'                 *
 *                                                       *
 *          Website: http://abacus.ustc.edu.cn/          *
 *                                                       *
 *********************************************************
 Tue May  2 12:47:56 2023
 MAKE THE DIR         : OUT.blpstest/
Notice: symbol 'Li_locpsp' is not an element symbol!!!! set the covalent radius to be 0.
 UNIFORM GRID DIM     : 25 * 25 * 25
 UNIFORM GRID DIM(BIG): 25 * 25 * 25
func,idXC_GGA_X_PBE 101
func,idXC_GGA_C_PBE 130
 DONE(0.0756755  SEC) : SETUP UNITCELL
 DONE(0.121039   SEC) : SYMMETRY
 DONE(0.121281   SEC) : INIT K-POINTS
 ---------------------------------------------------------
 Self-consistent calculations for electrons
 ---------------------------------------------------------
 SPIN    KPOINTS         PROCESSORS  
 1       1               1           
 ---------------------------------------------------------
 Use plane wave basis
 ---------------------------------------------------------
 ELEMENT NATOM       XC          
 Li      1           
 ---------------------------------------------------------
 Initial plane wave basis and FFT box
 ---------------------------------------------------------
 DONE(0.122352   SEC) : INIT BASIS
 DONE(0.122375   SEC) : INIT PHI
 DONE(0.157763   SEC) : LOCAL POTENTIAL
 DONE(0.157796   SEC) : NON-LOCAL POTENTIAL
 START CHARGE      : atomic
 DONE(0.21656    SEC) : INIT POTENTIAL
 DONE(0.216614   SEC) : INIT OPTIMIZATION
Default type: double
 DONE(0.217622   SEC) : INIT KEDF
======================== Running OFDFT ========================
Iter        Etot(Ha)          Theta      PotNorm     deltaE(Ha)
0     -2.636863235267e-01   2.000e-01   8.855e-02   -2.637e-01  
1     -2.765250427731e-01   8.343e-02   4.486e-02   -1.284e-02  
2     -2.769059429704e-01   5.649e-03   1.832e-02   -3.809e-04  
3     -2.770175910032e-01   8.297e-03   1.541e-03   -1.116e-04  
4     -2.770179539420e-01   2.406e-04   4.682e-04   -3.629e-07  
5     -2.770179835504e-01   6.809e-05   1.545e-04   -2.961e-08  

  |CLASS_NAME---------|NAME---------------|TIME(Sec)-----|CALLS----|AVG------|PER%-------
                       total               6.3838         21        0.3       1e+02     %
   Driver              driver_line         6.3727         1         6.4       1e+02     %
   PW_Basis            recip2real          1.1463         1594      0.00072   18        %
   PW_Basis            gathers_scatterp    0.1248         1594      7.8e-05   2         %
   Potential           update_from_charge  3.6654         123       0.03      57        %
   Potential           cal_v_eff           3.6638         123       0.03      57        %
   H_Hartree_pw        v_hartree           0.28929        123       0.0024    4.5       %
   PW_Basis            real2recip          1.1867         1594      0.00074   19        %
   PW_Basis            gatherp_scatters    0.12085        1594      7.6e-05   1.9       %
   PotXC               cal_v_eff           3.3508         123       0.027     52        %
   XC_Functional       v_xc                3.0841         62        0.05      48        %
   XC_Functional       v_xc_libxc          3.3071         123       0.027     52        %
   ESolver_OF          Run                 6.1645         1         6.2       97        %
   KEDF_LKT            LKT_potential       2.093          122       0.017     33        %
   KEDF_vW             vw_potential        0.24982        122       0.002     3.9       %
 ----------------------------------------------------------------------------------------

 START  Time  : Tue May  2 12:47:56 2023
 FINISH Time  : Tue May  2 12:48:03 2023
 TOTAL  Time  : 7
 SEE INFORMATION IN : OUT.blpstest/
