                                                                                     
                             WELCOME TO ABACUS                                       
                                                                                     
               'Atomic-orbital Based Ab-initio Computation at UStc'                  
                                                                                     
                     Website: http://abacus.ustc.edu.cn/                             
                                                                                     
    Version: Parallel, in development
    Processor Number is 1
    Start Time is Thu Aug 19 15:46:31 2021
                                                                                     
 ------------------------------------------------------------------------------------

 READING GENERAL INFORMATION
                           global_out_dir = OUT.blpstest/
                           global_in_card = INPUT
                               pseudo_dir = ./
                              pseudo_type = blps
                                    DRANK = 1
                                    DSIZE = 1
                                   DCOLOR = 1
                                    GRANK = 1
                                    GSIZE = 1




 >>>>>>>>>>>>>>>>>>>>>>>>>>>>>>>>>>>>>>>>>>>>>>>>>>>>>>>>>>>>>>>>>>>>>>
 |                                                                    |
 | Reading atom information in unitcell:                              |
 | From the input file and the structure file we know the number of   |
 | different elments in this unitcell, then we list the detail        |
 | information for each element, especially the zeta and polar atomic |
 | orbital number for each element. The total atom number is counted. |
 | We calculate the nearest atom distance for each atom and show the  |
 | Cartesian and Direct coordinates for each atom. We list the file   |
 | address for atomic orbitals. The volume and the lattice vectors    |
 | in real and reciprocal space is also shown.                        |
 |                                                                    |
 <<<<<<<<<<<<<<<<<<<<<<<<<<<<<<<<<<<<<<<<<<<<<<<<<<<<<<<<<<<<<<<<<<<<<<




 READING UNITCELL INFORMATION
                                    ntype = 1
                 atom label for species 1 = Mg
                  lattice constant (Bohr) = 5.82324
              lattice constant (Angstrom) = 3.08152

 READING ATOM TYPE 1
                               atom label = Mg
                      start magnetization = FALSE
                      L=0, number of zeta = 1
                      L=1, number of zeta = 1
                      L=2, number of zeta = 1
             number of atom for this type = 2

                        TOTAL ATOM NUMBER = 2

 DIRECT COORDINATES
         atom                   x                   y                   z                 mag
     taud_Mg1                   0                   0                   0                   0
     taud_Mg2            0.666667            0.333333                 0.5                   0


                          Volume (Bohr^3) = 279.675
                             Volume (A^3) = 41.4435

 Lattice vectors: (Cartesian coordinate: in unit of a_0)
                   +1                  +0                  +0
                 -0.5           +0.866025                  +0
                   +0                  +0            +1.63542
 Reciprocal vectors: (Cartesian coordinate: in unit of 2 pi/a_0)
                   +1            +0.57735                  -0
                   -0             +1.1547                  -0
                   +0                  -0           +0.611463




 >>>>>>>>>>>>>>>>>>>>>>>>>>>>>>>>>>>>>>>>>>>>>>>>>>>>>>>>>>>>>>>>>>>>>>
 |                                                                    |
 | Reading pseudopotentials files:                                    |
 | The pseudopotential file is in UPF format. The 'NC' indicates that |
 | the type of pseudopotential is 'norm conserving'. Functional of    |
 | exchange and correlation is decided by 4 given parameters in UPF   |
 | file.  We also read in the 'core correction' if there exists.      |
 | Also we can read the valence electrons number and the maximal      |
 | angular momentum used in this pseudopotential. We also read in the |
 | trail wave function, trail atomic density and local-pseudopotential|
 | on logrithmic grid. The non-local pseudopotential projector is also|
 | read in if there is any.                                           |
 |                                                                    |
 <<<<<<<<<<<<<<<<<<<<<<<<<<<<<<<<<<<<<<<<<<<<<<<<<<<<<<<<<<<<<<<<<<<<<<




                PAO radial cut off (Bohr) = 16

 Read in pseudopotential file is mg.lda.lps
                     pseudopotential type = 
                            functional Ex = LDA
                            functional Ec = LDA
                          functional GCEx = NOGX
                          functional GCEc = NOGC
                 nonlocal core correction = 0
                        valence electrons = 2
                                     lmax = 0
                           number of zeta = 0
                     number of projectors = 0
     initial pseudo atomic orbital number = 0
                                   NLOCAL = 18

 SETUP THE ELECTRONS NUMBER
            electron number of element Mg = 2
      total electron number of element Mg = 4
                           occupied bands = 2
                                   NBANDS = 15
 DONE : SETUP UNITCELL Time : 0.01406 (SEC)





 >>>>>>>>>>>>>>>>>>>>>>>>>>>>>>>>>>>>>>>>>>>>>>>>>>>>>>>>>>>>>>>>>>>>>>
 |                                                                    |
 | Doing symmetry analysis:                                           |
 | We calculate the norm of 3 vectors and the angles between them,    |
 | the type of Bravais lattice is given. We can judge if the unticell |
 | is a primitive cell. Finally we give the point group operation for |
 | this unitcell. We we use the point group operations to do symmetry |
 | analysis on given k-point mesh and the charge density.             |
 |                                                                    |
 <<<<<<<<<<<<<<<<<<<<<<<<<<<<<<<<<<<<<<<<<<<<<<<<<<<<<<<<<<<<<<<<<<<<<<




 LATTICE VECTORS: (CARTESIAN COORDINATE: IN UNIT OF A0)
                   +1                  +0                  +0
                 -0.5           +0.866025                  +0
                   +0                  +0            +1.63542
                       right hand lattice = 1
                                   NORM_A = 1
                                   NORM_B = 1
                                   NORM_C = 1.63542
                           ALPHA (DEGREE) = 120
                           BETA  (DEGREE) = 90
                           GAMMA (DEGREE) = 90
                             BRAVAIS TYPE = 4
                     BRAVAIS LATTICE NAME = 04. Hexagonal cell
 STANDARD LATTICE VECTORS: (CARTESIAN COORDINATE: IN UNIT OF A0)
                   +1                  +0                  +0
                 -0.5           +0.866025                  +0
                   +0                  +0            +1.63542
                                    IBRAV = 4
                                  BRAVAIS = HEXAGONAL CELL
                       LATTICE CONSTANT A = 5.57418
                                C/A RATIO = 0.663979
                                    ibrav = 4
                        ROTATION MATRICES = 24
              PURE POINT GROUP OPERATIONS = 12
                   SPACE GROUP OPERATIONS = 12
                                       C2 = 3
                                       C3 = 2
                                       C4 = 0
                                       C6 = 0
                                       S1 = 4
                                       S3 = 2
                                       S4 = 0
                                       S6 = 0
                              POINT GROUP = D_3h
 DONE : SYMMETRY Time : 0.0692868 (SEC)





 >>>>>>>>>>>>>>>>>>>>>>>>>>>>>>>>>>>>>>>>>>>>>>>>>>>>>>>>>>>>>>>>>>>>>>
 |                                                                    |
 | Setup K-points                                                     |
 | We setup the k-points according to input parameters.               |
 | The reduced k-points are set according to symmetry operations.     |
 | We treat the spin as another set of k-points.                      |
 |                                                                    |
 <<<<<<<<<<<<<<<<<<<<<<<<<<<<<<<<<<<<<<<<<<<<<<<<<<<<<<<<<<<<<<<<<<<<<<





 SETUP K-POINTS
                                    nspin = 1
                   Input type of k points = Monkhorst-Pack(Gamma)
                                   nkstot = 1728
                               nkstot_ibz = 133
      IBZ             DirectX             DirectY             DirectZ              Weight    ibz2bz
        1                   0                   0                   0         0.000578704         0
        2            0.916667           0.0833333                   0          0.00347222         1
        3            0.833333            0.166667                   0          0.00347222         2
        4                0.75                0.25                   0          0.00347222         3
        5            0.666667            0.333333                   0          0.00347222         4
        6            0.583333            0.416667                   0          0.00347222         5
        7                 0.5                 0.5                   0          0.00173611         6
        8            0.916667            0.916667                   0          0.00347222        13
        9            0.916667            0.833333                   0          0.00694444        14
       10            0.916667                0.75                   0          0.00694444        15
       11            0.916667            0.666667                   0          0.00694444        16
       12            0.916667            0.583333                   0          0.00694444        17
       13            0.833333            0.833333                   0          0.00347222        26
       14            0.833333                0.75                   0          0.00694444        27
       15            0.833333            0.666667                   0          0.00694444        28
       16            0.833333            0.583333                   0          0.00347222        29
       17                0.75                0.75                   0          0.00347222        39
       18                0.75            0.666667                   0          0.00694444        40
       19            0.666667            0.666667                   0          0.00115741        52
       20                   0                   0            0.916667          0.00115741       144
       21            0.916667           0.0833333            0.916667          0.00694444       145
       22            0.833333            0.166667            0.916667          0.00694444       146
       23                0.75                0.25            0.916667          0.00694444       147
       24            0.666667            0.333333            0.916667          0.00694444       148
       25            0.583333            0.416667            0.916667          0.00694444       149
       26                 0.5                 0.5            0.916667          0.00347222       150
       27            0.916667            0.916667            0.916667          0.00694444       157
       28            0.916667            0.833333            0.916667           0.0138889       158
       29            0.916667                0.75            0.916667           0.0138889       159
       30            0.916667            0.666667            0.916667           0.0138889       160
       31            0.916667            0.583333            0.916667           0.0138889       161
       32            0.833333            0.833333            0.916667          0.00694444       170
       33            0.833333                0.75            0.916667           0.0138889       171
       34            0.833333            0.666667            0.916667           0.0138889       172
       35            0.833333            0.583333            0.916667          0.00694444       173
       36                0.75                0.75            0.916667          0.00694444       183
       37                0.75            0.666667            0.916667           0.0138889       184
       38            0.666667            0.666667            0.916667          0.00231481       196
       39                   0                   0            0.833333          0.00115741       288
       40            0.916667           0.0833333            0.833333          0.00694444       289
       41            0.833333            0.166667            0.833333          0.00694444       290
       42                0.75                0.25            0.833333          0.00694444       291
       43            0.666667            0.333333            0.833333          0.00694444       292
       44            0.583333            0.416667            0.833333          0.00694444       293
       45                 0.5                 0.5            0.833333          0.00347222       294
       46            0.916667            0.916667            0.833333          0.00694444       301
       47            0.916667            0.833333            0.833333           0.0138889       302
       48            0.916667                0.75            0.833333           0.0138889       303
       49            0.916667            0.666667            0.833333           0.0138889       304
       50            0.916667            0.583333            0.833333           0.0138889       305
       51            0.833333            0.833333            0.833333          0.00694444       314
       52            0.833333                0.75            0.833333           0.0138889       315
       53            0.833333            0.666667            0.833333           0.0138889       316
       54            0.833333            0.583333            0.833333          0.00694444       317
       55                0.75                0.75            0.833333          0.00694444       327
       56                0.75            0.666667            0.833333           0.0138889       328
       57            0.666667            0.666667            0.833333          0.00231481       340
       58                   0                   0                0.75          0.00115741       432
       59            0.916667           0.0833333                0.75          0.00694444       433
       60            0.833333            0.166667                0.75          0.00694444       434
       61                0.75                0.25                0.75          0.00694444       435
       62            0.666667            0.333333                0.75          0.00694444       436
       63            0.583333            0.416667                0.75          0.00694444       437
       64                 0.5                 0.5                0.75          0.00347222       438
       65            0.916667            0.916667                0.75          0.00694444       445
       66            0.916667            0.833333                0.75           0.0138889       446
       67            0.916667                0.75                0.75           0.0138889       447
       68            0.916667            0.666667                0.75           0.0138889       448
       69            0.916667            0.583333                0.75           0.0138889       449
       70            0.833333            0.833333                0.75          0.00694444       458
       71            0.833333                0.75                0.75           0.0138889       459
       72            0.833333            0.666667                0.75           0.0138889       460
       73            0.833333            0.583333                0.75          0.00694444       461
       74                0.75                0.75                0.75          0.00694444       471
       75                0.75            0.666667                0.75           0.0138889       472
       76            0.666667            0.666667                0.75          0.00231481       484
       77                   0                   0            0.666667          0.00115741       576
       78            0.916667           0.0833333            0.666667          0.00694444       577
       79            0.833333            0.166667            0.666667          0.00694444       578
       80                0.75                0.25            0.666667          0.00694444       579
       81            0.666667            0.333333            0.666667          0.00694444       580
       82            0.583333            0.416667            0.666667          0.00694444       581
       83                 0.5                 0.5            0.666667          0.00347222       582
       84            0.916667            0.916667            0.666667          0.00694444       589
       85            0.916667            0.833333            0.666667           0.0138889       590
       86            0.916667                0.75            0.666667           0.0138889       591
       87            0.916667            0.666667            0.666667           0.0138889       592
       88            0.916667            0.583333            0.666667           0.0138889       593
       89            0.833333            0.833333            0.666667          0.00694444       602
       90            0.833333                0.75            0.666667           0.0138889       603
       91            0.833333            0.666667            0.666667           0.0138889       604
       92            0.833333            0.583333            0.666667          0.00694444       605
       93                0.75                0.75            0.666667          0.00694444       615
       94                0.75            0.666667            0.666667           0.0138889       616
       95            0.666667            0.666667            0.666667          0.00231481       628
       96                   0                   0            0.583333          0.00115741       720
       97            0.916667           0.0833333            0.583333          0.00694444       721
       98            0.833333            0.166667            0.583333          0.00694444       722
       99                0.75                0.25            0.583333          0.00694444       723
      100            0.666667            0.333333            0.583333          0.00694444       724
      101            0.583333            0.416667            0.583333          0.00694444       725
      102                 0.5                 0.5            0.583333          0.00347222       726
      103            0.916667            0.916667            0.583333          0.00694444       733
      104            0.916667            0.833333            0.583333           0.0138889       734
      105            0.916667                0.75            0.583333           0.0138889       735
      106            0.916667            0.666667            0.583333           0.0138889       736
      107            0.916667            0.583333            0.583333           0.0138889       737
      108            0.833333            0.833333            0.583333          0.00694444       746
      109            0.833333                0.75            0.583333           0.0138889       747
      110            0.833333            0.666667            0.583333           0.0138889       748
      111            0.833333            0.583333            0.583333          0.00694444       749
      112                0.75                0.75            0.583333          0.00694444       759
      113                0.75            0.666667            0.583333           0.0138889       760
      114            0.666667            0.666667            0.583333          0.00231481       772
      115                   0                   0                 0.5         0.000578704       864
      116            0.916667           0.0833333                 0.5          0.00347222       865
      117            0.833333            0.166667                 0.5          0.00347222       866
      118                0.75                0.25                 0.5          0.00347222       867
      119            0.666667            0.333333                 0.5          0.00347222       868
      120            0.583333            0.416667                 0.5          0.00347222       869
      121                 0.5                 0.5                 0.5          0.00173611       870
      122            0.916667            0.916667                 0.5          0.00347222       877
      123            0.916667            0.833333                 0.5          0.00694444       878
      124            0.916667                0.75                 0.5          0.00694444       879
      125            0.916667            0.666667                 0.5          0.00694444       880
      126            0.916667            0.583333                 0.5          0.00694444       881
      127            0.833333            0.833333                 0.5          0.00347222       890
      128            0.833333                0.75                 0.5          0.00694444       891
      129            0.833333            0.666667                 0.5          0.00694444       892
      130            0.833333            0.583333                 0.5          0.00347222       893
      131                0.75                0.75                 0.5          0.00347222       903
      132                0.75            0.666667                 0.5          0.00694444       904
      133            0.666667            0.666667                 0.5          0.00115741       916
                               nkstot now = 133

  KPOINTS            DIRECT_X            DIRECT_Y            DIRECT_Z              WEIGHT
        1                   0                   0                   0         0.000578704
        2            0.916667           0.0833333                   0          0.00347222
        3            0.833333            0.166667                   0          0.00347222
        4                0.75                0.25                   0          0.00347222
        5            0.666667            0.333333                   0          0.00347222
        6            0.583333            0.416667                   0          0.00347222
        7                 0.5                 0.5                   0          0.00173611
        8            0.916667            0.916667                   0          0.00347222
        9            0.916667            0.833333                   0          0.00694444
       10            0.916667                0.75                   0          0.00694444
       11            0.916667            0.666667                   0          0.00694444
       12            0.916667            0.583333                   0          0.00694444
       13            0.833333            0.833333                   0          0.00347222
       14            0.833333                0.75                   0          0.00694444
       15            0.833333            0.666667                   0          0.00694444
       16            0.833333            0.583333                   0          0.00347222
       17                0.75                0.75                   0          0.00347222
       18                0.75            0.666667                   0          0.00694444
       19            0.666667            0.666667                   0          0.00115741
       20                   0                   0            0.916667          0.00115741
       21            0.916667           0.0833333            0.916667          0.00694444
       22            0.833333            0.166667            0.916667          0.00694444
       23                0.75                0.25            0.916667          0.00694444
       24            0.666667            0.333333            0.916667          0.00694444
       25            0.583333            0.416667            0.916667          0.00694444
       26                 0.5                 0.5            0.916667          0.00347222
       27            0.916667            0.916667            0.916667          0.00694444
       28            0.916667            0.833333            0.916667           0.0138889
       29            0.916667                0.75            0.916667           0.0138889
       30            0.916667            0.666667            0.916667           0.0138889
       31            0.916667            0.583333            0.916667           0.0138889
       32            0.833333            0.833333            0.916667          0.00694444
       33            0.833333                0.75            0.916667           0.0138889
       34            0.833333            0.666667            0.916667           0.0138889
       35            0.833333            0.583333            0.916667          0.00694444
       36                0.75                0.75            0.916667          0.00694444
       37                0.75            0.666667            0.916667           0.0138889
       38            0.666667            0.666667            0.916667          0.00231481
       39                   0                   0            0.833333          0.00115741
       40            0.916667           0.0833333            0.833333          0.00694444
       41            0.833333            0.166667            0.833333          0.00694444
       42                0.75                0.25            0.833333          0.00694444
       43            0.666667            0.333333            0.833333          0.00694444
       44            0.583333            0.416667            0.833333          0.00694444
       45                 0.5                 0.5            0.833333          0.00347222
       46            0.916667            0.916667            0.833333          0.00694444
       47            0.916667            0.833333            0.833333           0.0138889
       48            0.916667                0.75            0.833333           0.0138889
       49            0.916667            0.666667            0.833333           0.0138889
       50            0.916667            0.583333            0.833333           0.0138889
       51            0.833333            0.833333            0.833333          0.00694444
       52            0.833333                0.75            0.833333           0.0138889
       53            0.833333            0.666667            0.833333           0.0138889
       54            0.833333            0.583333            0.833333          0.00694444
       55                0.75                0.75            0.833333          0.00694444
       56                0.75            0.666667            0.833333           0.0138889
       57            0.666667            0.666667            0.833333          0.00231481
       58                   0                   0                0.75          0.00115741
       59            0.916667           0.0833333                0.75          0.00694444
       60            0.833333            0.166667                0.75          0.00694444
       61                0.75                0.25                0.75          0.00694444
       62            0.666667            0.333333                0.75          0.00694444
       63            0.583333            0.416667                0.75          0.00694444
       64                 0.5                 0.5                0.75          0.00347222
       65            0.916667            0.916667                0.75          0.00694444
       66            0.916667            0.833333                0.75           0.0138889
       67            0.916667                0.75                0.75           0.0138889
       68            0.916667            0.666667                0.75           0.0138889
       69            0.916667            0.583333                0.75           0.0138889
       70            0.833333            0.833333                0.75          0.00694444
       71            0.833333                0.75                0.75           0.0138889
       72            0.833333            0.666667                0.75           0.0138889
       73            0.833333            0.583333                0.75          0.00694444
       74                0.75                0.75                0.75          0.00694444
       75                0.75            0.666667                0.75           0.0138889
       76            0.666667            0.666667                0.75          0.00231481
       77                   0                   0            0.666667          0.00115741
       78            0.916667           0.0833333            0.666667          0.00694444
       79            0.833333            0.166667            0.666667          0.00694444
       80                0.75                0.25            0.666667          0.00694444
       81            0.666667            0.333333            0.666667          0.00694444
       82            0.583333            0.416667            0.666667          0.00694444
       83                 0.5                 0.5            0.666667          0.00347222
       84            0.916667            0.916667            0.666667          0.00694444
       85            0.916667            0.833333            0.666667           0.0138889
       86            0.916667                0.75            0.666667           0.0138889
       87            0.916667            0.666667            0.666667           0.0138889
       88            0.916667            0.583333            0.666667           0.0138889
       89            0.833333            0.833333            0.666667          0.00694444
       90            0.833333                0.75            0.666667           0.0138889
       91            0.833333            0.666667            0.666667           0.0138889
       92            0.833333            0.583333            0.666667          0.00694444
       93                0.75                0.75            0.666667          0.00694444
       94                0.75            0.666667            0.666667           0.0138889
       95            0.666667            0.666667            0.666667          0.00231481
       96                   0                   0            0.583333          0.00115741
       97            0.916667           0.0833333            0.583333          0.00694444
       98            0.833333            0.166667            0.583333          0.00694444
       99                0.75                0.25            0.583333          0.00694444
      100            0.666667            0.333333            0.583333          0.00694444
      101            0.583333            0.416667            0.583333          0.00694444
      102                 0.5                 0.5            0.583333          0.00347222
      103            0.916667            0.916667            0.583333          0.00694444
      104            0.916667            0.833333            0.583333           0.0138889
      105            0.916667                0.75            0.583333           0.0138889
      106            0.916667            0.666667            0.583333           0.0138889
      107            0.916667            0.583333            0.583333           0.0138889
      108            0.833333            0.833333            0.583333          0.00694444
      109            0.833333                0.75            0.583333           0.0138889
      110            0.833333            0.666667            0.583333           0.0138889
      111            0.833333            0.583333            0.583333          0.00694444
      112                0.75                0.75            0.583333          0.00694444
      113                0.75            0.666667            0.583333           0.0138889
      114            0.666667            0.666667            0.583333          0.00231481
      115                   0                   0                 0.5         0.000578704
      116            0.916667           0.0833333                 0.5          0.00347222
      117            0.833333            0.166667                 0.5          0.00347222
      118                0.75                0.25                 0.5          0.00347222
      119            0.666667            0.333333                 0.5          0.00347222
      120            0.583333            0.416667                 0.5          0.00347222
      121                 0.5                 0.5                 0.5          0.00173611
      122            0.916667            0.916667                 0.5          0.00347222
      123            0.916667            0.833333                 0.5          0.00694444
      124            0.916667                0.75                 0.5          0.00694444
      125            0.916667            0.666667                 0.5          0.00694444
      126            0.916667            0.583333                 0.5          0.00694444
      127            0.833333            0.833333                 0.5          0.00347222
      128            0.833333                0.75                 0.5          0.00694444
      129            0.833333            0.666667                 0.5          0.00694444
      130            0.833333            0.583333                 0.5          0.00347222
      131                0.75                0.75                 0.5          0.00347222
      132                0.75            0.666667                 0.5          0.00694444
      133            0.666667            0.666667                 0.5          0.00115741

           k-point number in this process = 133
       minimum distributed K point number = 133

  KPOINTS         CARTESIAN_X         CARTESIAN_Y         CARTESIAN_Z              WEIGHT
        1                   0                   0                   0          0.00115741
        2            0.916667            0.625463                   0          0.00694444
        3            0.833333            0.673575                   0          0.00694444
        4                0.75            0.721688                   0          0.00694444
        5            0.666667              0.7698                   0          0.00694444
        6            0.583333            0.817913                   0          0.00694444
        7                 0.5            0.866025                   0          0.00347222
        8            0.916667             1.58771                   0          0.00694444
        9            0.916667             1.49149                   0           0.0138889
       10            0.916667             1.39526                   0           0.0138889
       11            0.916667             1.29904                   0           0.0138889
       12            0.916667             1.20281                   0           0.0138889
       13            0.833333             1.44338                   0          0.00694444
       14            0.833333             1.34715                   0           0.0138889
       15            0.833333             1.25093                   0           0.0138889
       16            0.833333              1.1547                   0          0.00694444
       17                0.75             1.29904                   0          0.00694444
       18                0.75             1.20281                   0           0.0138889
       19            0.666667              1.1547                   0          0.00231481
       20                   0                   0            0.560508          0.00231481
       21            0.916667            0.625463            0.560508           0.0138889
       22            0.833333            0.673575            0.560508           0.0138889
       23                0.75            0.721688            0.560508           0.0138889
       24            0.666667              0.7698            0.560508           0.0138889
       25            0.583333            0.817913            0.560508           0.0138889
       26                 0.5            0.866025            0.560508          0.00694444
       27            0.916667             1.58771            0.560508           0.0138889
       28            0.916667             1.49149            0.560508           0.0277778
       29            0.916667             1.39526            0.560508           0.0277778
       30            0.916667             1.29904            0.560508           0.0277778
       31            0.916667             1.20281            0.560508           0.0277778
       32            0.833333             1.44338            0.560508           0.0138889
       33            0.833333             1.34715            0.560508           0.0277778
       34            0.833333             1.25093            0.560508           0.0277778
       35            0.833333              1.1547            0.560508           0.0138889
       36                0.75             1.29904            0.560508           0.0138889
       37                0.75             1.20281            0.560508           0.0277778
       38            0.666667              1.1547            0.560508          0.00462963
       39                   0                   0            0.509553          0.00231481
       40            0.916667            0.625463            0.509553           0.0138889
       41            0.833333            0.673575            0.509553           0.0138889
       42                0.75            0.721688            0.509553           0.0138889
       43            0.666667              0.7698            0.509553           0.0138889
       44            0.583333            0.817913            0.509553           0.0138889
       45                 0.5            0.866025            0.509553          0.00694444
       46            0.916667             1.58771            0.509553           0.0138889
       47            0.916667             1.49149            0.509553           0.0277778
       48            0.916667             1.39526            0.509553           0.0277778
       49            0.916667             1.29904            0.509553           0.0277778
       50            0.916667             1.20281            0.509553           0.0277778
       51            0.833333             1.44338            0.509553           0.0138889
       52            0.833333             1.34715            0.509553           0.0277778
       53            0.833333             1.25093            0.509553           0.0277778
       54            0.833333              1.1547            0.509553           0.0138889
       55                0.75             1.29904            0.509553           0.0138889
       56                0.75             1.20281            0.509553           0.0277778
       57            0.666667              1.1547            0.509553          0.00462963
       58                   0                   0            0.458597          0.00231481
       59            0.916667            0.625463            0.458597           0.0138889
       60            0.833333            0.673575            0.458597           0.0138889
       61                0.75            0.721688            0.458597           0.0138889
       62            0.666667              0.7698            0.458597           0.0138889
       63            0.583333            0.817913            0.458597           0.0138889
       64                 0.5            0.866025            0.458597          0.00694444
       65            0.916667             1.58771            0.458597           0.0138889
       66            0.916667             1.49149            0.458597           0.0277778
       67            0.916667             1.39526            0.458597           0.0277778
       68            0.916667             1.29904            0.458597           0.0277778
       69            0.916667             1.20281            0.458597           0.0277778
       70            0.833333             1.44338            0.458597           0.0138889
       71            0.833333             1.34715            0.458597           0.0277778
       72            0.833333             1.25093            0.458597           0.0277778
       73            0.833333              1.1547            0.458597           0.0138889
       74                0.75             1.29904            0.458597           0.0138889
       75                0.75             1.20281            0.458597           0.0277778
       76            0.666667              1.1547            0.458597          0.00462963
       77                   0                   0            0.407642          0.00231481
       78            0.916667            0.625463            0.407642           0.0138889
       79            0.833333            0.673575            0.407642           0.0138889
       80                0.75            0.721688            0.407642           0.0138889
       81            0.666667              0.7698            0.407642           0.0138889
       82            0.583333            0.817913            0.407642           0.0138889
       83                 0.5            0.866025            0.407642          0.00694444
       84            0.916667             1.58771            0.407642           0.0138889
       85            0.916667             1.49149            0.407642           0.0277778
       86            0.916667             1.39526            0.407642           0.0277778
       87            0.916667             1.29904            0.407642           0.0277778
       88            0.916667             1.20281            0.407642           0.0277778
       89            0.833333             1.44338            0.407642           0.0138889
       90            0.833333             1.34715            0.407642           0.0277778
       91            0.833333             1.25093            0.407642           0.0277778
       92            0.833333              1.1547            0.407642           0.0138889
       93                0.75             1.29904            0.407642           0.0138889
       94                0.75             1.20281            0.407642           0.0277778
       95            0.666667              1.1547            0.407642          0.00462963
       96                   0                   0            0.356687          0.00231481
       97            0.916667            0.625463            0.356687           0.0138889
       98            0.833333            0.673575            0.356687           0.0138889
       99                0.75            0.721688            0.356687           0.0138889
      100            0.666667              0.7698            0.356687           0.0138889
      101            0.583333            0.817913            0.356687           0.0138889
      102                 0.5            0.866025            0.356687          0.00694444
      103            0.916667             1.58771            0.356687           0.0138889
      104            0.916667             1.49149            0.356687           0.0277778
      105            0.916667             1.39526            0.356687           0.0277778
      106            0.916667             1.29904            0.356687           0.0277778
      107            0.916667             1.20281            0.356687           0.0277778
      108            0.833333             1.44338            0.356687           0.0138889
      109            0.833333             1.34715            0.356687           0.0277778
      110            0.833333             1.25093            0.356687           0.0277778
      111            0.833333              1.1547            0.356687           0.0138889
      112                0.75             1.29904            0.356687           0.0138889
      113                0.75             1.20281            0.356687           0.0277778
      114            0.666667              1.1547            0.356687          0.00462963
      115                   0                   0            0.305732          0.00115741
      116            0.916667            0.625463            0.305732          0.00694444
      117            0.833333            0.673575            0.305732          0.00694444
      118                0.75            0.721688            0.305732          0.00694444
      119            0.666667              0.7698            0.305732          0.00694444
      120            0.583333            0.817913            0.305732          0.00694444
      121                 0.5            0.866025            0.305732          0.00347222
      122            0.916667             1.58771            0.305732          0.00694444
      123            0.916667             1.49149            0.305732           0.0138889
      124            0.916667             1.39526            0.305732           0.0138889
      125            0.916667             1.29904            0.305732           0.0138889
      126            0.916667             1.20281            0.305732           0.0138889
      127            0.833333             1.44338            0.305732          0.00694444
      128            0.833333             1.34715            0.305732           0.0138889
      129            0.833333             1.25093            0.305732           0.0138889
      130            0.833333              1.1547            0.305732          0.00694444
      131                0.75             1.29904            0.305732          0.00694444
      132                0.75             1.20281            0.305732           0.0138889
      133            0.666667              1.1547            0.305732          0.00231481

  KPOINTS            DIRECT_X            DIRECT_Y            DIRECT_Z              WEIGHT
        1                   0                   0                   0          0.00115741
        2            0.916667           0.0833333                   0          0.00694444
        3            0.833333            0.166667                   0          0.00694444
        4                0.75                0.25                   0          0.00694444
        5            0.666667            0.333333                   0          0.00694444
        6            0.583333            0.416667                   0          0.00694444
        7                 0.5                 0.5                   0          0.00347222
        8            0.916667            0.916667                   0          0.00694444
        9            0.916667            0.833333                   0           0.0138889
       10            0.916667                0.75                   0           0.0138889
       11            0.916667            0.666667                   0           0.0138889
       12            0.916667            0.583333                   0           0.0138889
       13            0.833333            0.833333                   0          0.00694444
       14            0.833333                0.75                   0           0.0138889
       15            0.833333            0.666667                   0           0.0138889
       16            0.833333            0.583333                   0          0.00694444
       17                0.75                0.75                   0          0.00694444
       18                0.75            0.666667                   0           0.0138889
       19            0.666667            0.666667                   0          0.00231481
       20                   0                   0            0.916667          0.00231481
       21            0.916667           0.0833333            0.916667           0.0138889
       22            0.833333            0.166667            0.916667           0.0138889
       23                0.75                0.25            0.916667           0.0138889
       24            0.666667            0.333333            0.916667           0.0138889
       25            0.583333            0.416667            0.916667           0.0138889
       26                 0.5                 0.5            0.916667          0.00694444
       27            0.916667            0.916667            0.916667           0.0138889
       28            0.916667            0.833333            0.916667           0.0277778
       29            0.916667                0.75            0.916667           0.0277778
       30            0.916667            0.666667            0.916667           0.0277778
       31            0.916667            0.583333            0.916667           0.0277778
       32            0.833333            0.833333            0.916667           0.0138889
       33            0.833333                0.75            0.916667           0.0277778
       34            0.833333            0.666667            0.916667           0.0277778
       35            0.833333            0.583333            0.916667           0.0138889
       36                0.75                0.75            0.916667           0.0138889
       37                0.75            0.666667            0.916667           0.0277778
       38            0.666667            0.666667            0.916667          0.00462963
       39                   0                   0            0.833333          0.00231481
       40            0.916667           0.0833333            0.833333           0.0138889
       41            0.833333            0.166667            0.833333           0.0138889
       42                0.75                0.25            0.833333           0.0138889
       43            0.666667            0.333333            0.833333           0.0138889
       44            0.583333            0.416667            0.833333           0.0138889
       45                 0.5                 0.5            0.833333          0.00694444
       46            0.916667            0.916667            0.833333           0.0138889
       47            0.916667            0.833333            0.833333           0.0277778
       48            0.916667                0.75            0.833333           0.0277778
       49            0.916667            0.666667            0.833333           0.0277778
       50            0.916667            0.583333            0.833333           0.0277778
       51            0.833333            0.833333            0.833333           0.0138889
       52            0.833333                0.75            0.833333           0.0277778
       53            0.833333            0.666667            0.833333           0.0277778
       54            0.833333            0.583333            0.833333           0.0138889
       55                0.75                0.75            0.833333           0.0138889
       56                0.75            0.666667            0.833333           0.0277778
       57            0.666667            0.666667            0.833333          0.00462963
       58                   0                   0                0.75          0.00231481
       59            0.916667           0.0833333                0.75           0.0138889
       60            0.833333            0.166667                0.75           0.0138889
       61                0.75                0.25                0.75           0.0138889
       62            0.666667            0.333333                0.75           0.0138889
       63            0.583333            0.416667                0.75           0.0138889
       64                 0.5                 0.5                0.75          0.00694444
       65            0.916667            0.916667                0.75           0.0138889
       66            0.916667            0.833333                0.75           0.0277778
       67            0.916667                0.75                0.75           0.0277778
       68            0.916667            0.666667                0.75           0.0277778
       69            0.916667            0.583333                0.75           0.0277778
       70            0.833333            0.833333                0.75           0.0138889
       71            0.833333                0.75                0.75           0.0277778
       72            0.833333            0.666667                0.75           0.0277778
       73            0.833333            0.583333                0.75           0.0138889
       74                0.75                0.75                0.75           0.0138889
       75                0.75            0.666667                0.75           0.0277778
       76            0.666667            0.666667                0.75          0.00462963
       77                   0                   0            0.666667          0.00231481
       78            0.916667           0.0833333            0.666667           0.0138889
       79            0.833333            0.166667            0.666667           0.0138889
       80                0.75                0.25            0.666667           0.0138889
       81            0.666667            0.333333            0.666667           0.0138889
       82            0.583333            0.416667            0.666667           0.0138889
       83                 0.5                 0.5            0.666667          0.00694444
       84            0.916667            0.916667            0.666667           0.0138889
       85            0.916667            0.833333            0.666667           0.0277778
       86            0.916667                0.75            0.666667           0.0277778
       87            0.916667            0.666667            0.666667           0.0277778
       88            0.916667            0.583333            0.666667           0.0277778
       89            0.833333            0.833333            0.666667           0.0138889
       90            0.833333                0.75            0.666667           0.0277778
       91            0.833333            0.666667            0.666667           0.0277778
       92            0.833333            0.583333            0.666667           0.0138889
       93                0.75                0.75            0.666667           0.0138889
       94                0.75            0.666667            0.666667           0.0277778
       95            0.666667            0.666667            0.666667          0.00462963
       96                   0                   0            0.583333          0.00231481
       97            0.916667           0.0833333            0.583333           0.0138889
       98            0.833333            0.166667            0.583333           0.0138889
       99                0.75                0.25            0.583333           0.0138889
      100            0.666667            0.333333            0.583333           0.0138889
      101            0.583333            0.416667            0.583333           0.0138889
      102                 0.5                 0.5            0.583333          0.00694444
      103            0.916667            0.916667            0.583333           0.0138889
      104            0.916667            0.833333            0.583333           0.0277778
      105            0.916667                0.75            0.583333           0.0277778
      106            0.916667            0.666667            0.583333           0.0277778
      107            0.916667            0.583333            0.583333           0.0277778
      108            0.833333            0.833333            0.583333           0.0138889
      109            0.833333                0.75            0.583333           0.0277778
      110            0.833333            0.666667            0.583333           0.0277778
      111            0.833333            0.583333            0.583333           0.0138889
      112                0.75                0.75            0.583333           0.0138889
      113                0.75            0.666667            0.583333           0.0277778
      114            0.666667            0.666667            0.583333          0.00462963
      115                   0                   0                 0.5          0.00115741
      116            0.916667           0.0833333                 0.5          0.00694444
      117            0.833333            0.166667                 0.5          0.00694444
      118                0.75                0.25                 0.5          0.00694444
      119            0.666667            0.333333                 0.5          0.00694444
      120            0.583333            0.416667                 0.5          0.00694444
      121                 0.5                 0.5                 0.5          0.00347222
      122            0.916667            0.916667                 0.5          0.00694444
      123            0.916667            0.833333                 0.5           0.0138889
      124            0.916667                0.75                 0.5           0.0138889
      125            0.916667            0.666667                 0.5           0.0138889
      126            0.916667            0.583333                 0.5           0.0138889
      127            0.833333            0.833333                 0.5          0.00694444
      128            0.833333                0.75                 0.5           0.0138889
      129            0.833333            0.666667                 0.5           0.0138889
      130            0.833333            0.583333                 0.5          0.00694444
      131                0.75                0.75                 0.5          0.00694444
      132                0.75            0.666667                 0.5           0.0138889
      133            0.666667            0.666667                 0.5          0.00231481
 DONE : INIT K-POINTS Time : 0.0825958 (SEC)





 >>>>>>>>>>>>>>>>>>>>>>>>>>>>>>>>>>>>>>>>>>>>>>>>>>>>>>>>>>>>>>>>>>>>>>
 |                                                                    |
 | Setup plane waves:                                                 |
 | Use the energy cutoff and the lattice vectors to generate the      |
 | dimensions of FFT grid. The number of FFT grid on each processor   |
 | is 'nrxx'. The number of plane wave basis in reciprocal space is   |
 | different for charege/potential and wave functions. We also set    |
 | the 'sticks' for the parallel of FFT.                              |
 |                                                                    |
 <<<<<<<<<<<<<<<<<<<<<<<<<<<<<<<<<<<<<<<<<<<<<<<<<<<<<<<<<<<<<<<<<<<<<<





 SETUP THE PLANE WAVE BASIS
     energy cutoff for wavefunc (unit:Ry) = 60
            [fft grid for wave functions] = 30, 30, 48
          [fft grid for charge/potential] = 30, 30, 48
                      [fft grid division] = 1, 1, 1
      [big fft grid for charge/potential] = 30, 30, 48
                                     nbxx = 43200
                                     nrxx = 43200

 SETUP PLANE WAVES FOR CHARGE/POTENTIAL
                    number of plane waves = 17525
                         number of sticks = 559

 SETUP PLANE WAVES FOR WAVE FUNCTIONS
                    number of plane waves = 4475
                         number of sticks = 223

 PARALLEL PW FOR CHARGE/POTENTIAL
     PROC   COLUMNS(POT)             PW
        1            559          17525
 --------------- sum -------------------
        1            559          17525

 PARALLEL PW FOR WAVE FUNCTIONS
     PROC     COLUMNS(W)             PW
        1            223           4475
 --------------- sum -------------------
        1            223           4475

 SETUP COORDINATES OF PLANE WAVES
              number of total plane waves = 17525

 SETUP COORDINATES OF PLANE WAVES
                            number of |g| = 899
                                  max |g| = 205.46
                                  min |g| = 0
 DONE : INIT PLANEWAVE Time : 0.145052 (SEC)

                                     npwx = 2217

 SETUP NONLOCAL PSEUDOPOTENTIALS IN PLANE WAVE BASIS
 Mg non-local projectors:
      TOTAL NUMBER OF NONLOCAL PROJECTORS = 0

 nhm = 0, not allocate some matrix. DONE : LOCAL POTENTIAL Time : 0.281735 (SEC)


 Init Non-Local PseudoPotential table : 
 Init Non-Local-Pseudopotential done.
 DONE : NON-LOCAL POTENTIAL Time : 0.281779 (SEC)

                                start_pot = atomic
 DONE : INIT POTENTIAL Time : 0.375738 (SEC)


 Make real space PAO into reciprocal space.
       max mesh points in Pseudopotential = 1601
     dq(describe PAO in reciprocal space) = 0.01
                                    max q = 934

 number of pseudo atomic orbitals for Mg is 0
 DONE : INIT BASIS Time : 5.85579 (SEC)

 -------------------------------------------
 -------------------------------------------

 PW ALGORITHM --------------- ION=   1  ELEC=   1--------------------------------
  K-point    CG iter num      Time(Sec)
        1       6.133333       0.240761
        2       7.200000       0.300461
        3       6.600000       0.300481
        4       6.933333       0.320237
        5       6.866667       0.320552
        6       6.133333       0.261019
        7       6.466667       0.239131
        8       7.000000       0.304852
        9       7.200000       0.318628
       10       6.866667       0.303013
       11       6.466667       0.289645
       12       7.733333       0.344023
       13       7.000000       0.294179
       14       7.533333       0.300085
       15       7.266667       0.295742
       16       7.066667       0.320052
       17       7.266667       0.336330
       18       7.600000       0.337554
       19       6.266667       0.278243
       20       7.533333       0.360827
       21       7.266667       0.345889
       22       7.800000       0.360897
       23       7.466667       0.336406
       24       7.600000       0.344581
       25       8.133333       0.371025
       26       7.133333       0.331842
       27       6.866667       0.321937
       28       7.933333       0.370399
       29       7.666667       0.364550
       30       7.533333       0.318306
       31       7.866667       0.332613
       32       7.533333       0.362903
       33       7.333333       0.351689
       34       7.600000       0.354639
       35       7.400000       0.346018
       36       7.000000       0.328347
       37       7.133333       0.334174
       38       6.600000       0.311485
       39       7.666667       0.358553
       40       7.800000       0.372736
       41       7.466667       0.367181
       42       8.066667       0.389297
       43       6.733333       0.333238
       44       7.466667       0.355501
       45       6.666667       0.319893
       46       7.866667       0.371694
       47       7.533333       0.355927
       48       7.400000       0.353834
       49       7.200000       0.348681
       50       7.733333       0.375313
       51       7.333333       0.353788
       52       7.666667       0.371305
       53       7.933333       0.378504
       54       7.333333       0.350121
       55       7.600000       0.364426
       56       8.133333       0.386893
       57       7.200000       0.337742
       58       7.466667       0.345909
       59       7.466667       0.347227
       60       8.400000       0.387337
       61       8.400000       0.391667
       62       7.866667       0.360072
       63       7.866667       0.364920
       64       7.533333       0.350516
       65       7.733333       0.366628
       66       7.000000       0.341238
       67       7.533333       0.360588
       68       7.600000       0.363055
       69       8.066667       0.379523
       70       7.466667       0.353820
       71       8.066667       0.384916
       72       7.733333       0.369834
       73       8.000000       0.380519
       74       6.866667       0.329652
       75       7.333333       0.348259
       76       6.866667       0.330844
       77       7.066667       0.339543
       78       7.600000       0.365718
       79       7.600000       0.360662
       80       7.466667       0.356414
       81       7.733333       0.362406
       82       8.000000       0.381613
       83       6.466667       0.315873
       84       6.866667       0.325484
       85       6.666667       0.319790
       86       6.933333       0.340184
       87       8.200000       0.388642
       88       7.866667       0.379914
       89       6.733333       0.328137
       90       7.400000       0.362529
       91       8.133333       0.391812
       92       6.666667       0.324931
       93       7.400000       0.299350
       94       7.466667       0.331599
       95       6.933333       0.343078
       96       5.733333       0.294344
       97       7.800000       0.372136
       98       7.066667       0.346249
       99       8.000000       0.389622
      100       7.333333       0.355562
      101       7.066667       0.349060
      102       6.200000       0.308550
      103       7.066667       0.344486
      104       7.133333       0.351115
      105       6.733333       0.331527
      106       7.866667       0.379477
      107       6.866667       0.338337
      108       7.133333       0.349948
      109       7.200000       0.352413
      110       7.800000       0.377964
      111       7.533333       0.366741
      112       7.333333       0.356721
      113       7.466667       0.363200
      114       6.066667       0.302994
      115       5.400000       0.273405
      116       7.333333       0.363013
      117       7.133333       0.353840
      118       6.933333       0.343605
      119       7.533333       0.369793
      120       6.666667       0.326781
      121       6.733333       0.332871
      122       6.400000       0.321233
      123       6.733333       0.328303
      124       7.000000       0.336264
      125       7.133333       0.338199
      126       6.733333       0.325676
      127       6.333333       0.279229
      128       7.266667       0.346397
      129       7.266667       0.340595
      130       6.066667       0.293928
      131       6.266667       0.298144
      132       7.133333       0.330084
      133       5.400000       0.221905

 Density error is 0.098961957302
                          Error Threshold = 0.010000000000

       Energy                       Rydberg                            eV
   E_KohnSham               -3.610105990707              -49.118011857553
     E_Harris               -3.617794242926              -49.222615895384
      E_Fermi               +0.301608834487               +4.103598716165

 PW ALGORITHM --------------- ION=   1  ELEC=   2--------------------------------
  K-point    CG iter num      Time(Sec)
        1       3.066667       0.128636
        2       2.266667       0.097876
        3       2.000000       0.087531
        4       2.600000       0.108398
        5       2.000000       0.085794
        6       2.466667       0.101598
        7       2.066667       0.090642
        8       2.666667       0.110497
        9       2.066667       0.088831
       10       2.000000       0.086109
       11       2.066667       0.089054
       12       2.266667       0.096436
       13       2.000000       0.087581
       14       2.066667       0.090993
       15       2.000000       0.089322
       16       2.466667       0.103566
       17       2.133333       0.097103
       18       2.266667       0.099282
       19       2.066667       0.092163
       20       2.533333       0.112256
       21       3.000000       0.130079
       22       2.066667       0.095841
       23       2.066667       0.096195
       24       2.000000       0.095550
       25       2.000000       0.095873
       26       2.000000       0.095176
       27       2.600000       0.117575
       28       2.133333       0.103687
       29       2.066667       0.101393
       30       2.266667       0.112066
       31       2.000000       0.101099
       32       2.200000       0.116071
       33       2.133333       0.110592
       34       2.066667       0.109837
       35       2.266667       0.112905
       36       2.133333       0.097932
       37       2.400000       0.108369
       38       2.066667       0.094273
       39       2.333333       0.110298
       40       2.533333       0.121784
       41       2.200000       0.109243
       42       2.133333       0.109007
       43       2.000000       0.103693
       44       2.066667       0.108464
       45       2.066667       0.108514
       46       2.066667       0.109253
       47       2.200000       0.114570
       48       2.000000       0.103998
       49       2.266667       0.114672
       50       2.600000       0.124627
       51       2.000000       0.103990
       52       2.733333       0.133455
       53       2.133333       0.101657
       54       2.133333       0.104202
       55       2.266667       0.123647
       56       2.066667       0.117851
       57       2.066667       0.120016
       58       2.400000       0.140143
       59       2.133333       0.124998
       60       2.466667       0.142611
       61       2.200000       0.128270
       62       2.066667       0.123565
       63       2.066667       0.124013
       64       2.200000       0.128071
       65       2.066667       0.115594
       66       2.133333       0.121175
       67       2.000000       0.113241
       68       2.066667       0.120764
       69       2.000000       0.117197
       70       2.133333       0.123966
       71       2.266667       0.133156
       72       2.000000       0.120009
       73       2.000000       0.120983
       74       2.066667       0.125728
       75       2.000000       0.116864
       76       2.200000       0.131451
       77       2.066667       0.118008
       78       2.066667       0.118989
       79       2.466667       0.136789
       80       2.133333       0.125962
       81       2.000000       0.117806
       82       2.000000       0.118598
       83       2.266667       0.124449
       84       2.200000       0.122245
       85       2.466667       0.144062
       86       2.133333       0.124795
       87       2.200000       0.127774
       88       2.000000       0.109174
       89       2.000000       0.108611
       90       2.733333       0.140821
       91       2.133333       0.114998
       92       2.066667       0.110027
       93       2.000000       0.109262
       94       2.200000       0.114891
       95       2.066667       0.107501
       96       2.200000       0.117399
       97       2.400000       0.126973
       98       2.133333       0.118081
       99       2.866667       0.148733
      100       2.466667       0.130218
      101       2.333333       0.102222
      102       2.333333       0.096261
      103       2.200000       0.108647
      104       2.200000       0.119071
      105       2.000000       0.108318
      106       2.133333       0.115440
      107       2.000000       0.111466
      108       2.000000       0.110993
      109       2.333333       0.126342
      110       2.000000       0.109886
      111       2.200000       0.120992
      112       2.333333       0.123035
      113       2.133333       0.115080
      114       2.000000       0.109195
      115       2.266667       0.118001
      116       2.000000       0.109066
      117       2.200000       0.116863
      118       2.466667       0.126627
      119       2.200000       0.114602
      120       2.266667       0.117763
      121       2.266667       0.131230
      122       2.733333       0.159178
      123       2.066667       0.126994
      124       2.066667       0.127666
      125       2.266667       0.134996
      126       2.000000       0.123289
      127       2.333333       0.133572
      128       2.000000       0.122045
      129       2.000000       0.121041
      130       2.533333       0.150819
      131       2.266667       0.134478
      132       2.066667       0.122946
      133       2.266667       0.132838

 Density error is 0.008189910901
                          Error Threshold = 0.002474048933

       Energy                       Rydberg                            eV
   E_KohnSham               -3.626154143281              -49.336358174935
     E_Harris               -3.619041037102              -49.239579400418
      E_Fermi               +0.294326529047               +4.004517867596

 PW ALGORITHM --------------- ION=   1  ELEC=   3--------------------------------
  K-point    CG iter num      Time(Sec)
        1       5.533333       0.237477
        2       4.266667       0.187644
        3       3.333333       0.151818
        4       2.666667       0.130021
        5       2.866667       0.135843
        6       2.600000       0.119700
        7       3.066667       0.134956
        8       3.666667       0.162725
        9       3.066667       0.137251
       10       2.666667       0.126940
       11       2.666667       0.129493
       12       3.000000       0.138163
       13       3.533333       0.158264
       14       2.933333       0.136982
       15       2.866667       0.137936
       16       2.733333       0.134260
       17       3.333333       0.158873
       18       3.266667       0.154996
       19       4.066667       0.194141
       20       3.800000       0.170916
       21       3.733333       0.171931
       22       3.266667       0.158679
       23       2.866667       0.148332
       24       3.133333       0.165417
       25       2.466667       0.131359
       26       2.600000       0.143354
       27       3.266667       0.167229
       28       3.000000       0.145436
       29       2.800000       0.136062
       30       2.533333       0.125223
       31       2.733333       0.136659
       32       2.733333       0.134294
       33       2.800000       0.137194
       34       3.066667       0.149353
       35       3.066667       0.152710
       36       3.600000       0.169676
       37       3.333333       0.161107
       38       2.866667       0.141185
       39       3.933333       0.181664
       40       3.333333       0.162681
       41       3.466667       0.178016
       42       2.866667       0.158508
       43       2.933333       0.159287
       44       2.733333       0.150437
       45       2.533333       0.141632
       46       4.066667       0.207838
       47       3.333333       0.182342
       48       3.800000       0.207455
       49       2.400000       0.138441
       50       2.600000       0.147623
       51       2.933333       0.165664
       52       2.933333       0.162825
       53       2.933333       0.146936
       54       2.866667       0.151605
       55       3.266667       0.191749
       56       2.666667       0.161091
       57       2.733333       0.161205
       58       3.733333       0.204103
       59       3.600000       0.198995
       60       3.400000       0.190502
       61       3.000000       0.173294
       62       2.666667       0.160243
       63       3.133333       0.184894
       64       2.400000       0.146398
       65       3.133333       0.159922
       66       3.600000       0.178321
       67       2.800000       0.143436
       68       2.666667       0.138446
       69       2.733333       0.145142
       70       2.933333       0.153145
       71       3.000000       0.158574
       72       2.733333       0.145494
       73       2.466667       0.130234
       74       2.866667       0.153786
       75       2.733333       0.144223
       76       2.866667       0.150674
       77       3.266667       0.164907
       78       3.466667       0.172411
       79       3.133333       0.158945
       80       2.800000       0.146274
       81       2.800000       0.145244
       82       2.533333       0.132615
       83       2.333333       0.125619
       84       3.466667       0.172664
       85       3.133333       0.162385
       86       2.866667       0.150529
       87       2.733333       0.144746
       88       2.400000       0.129429
       89       3.133333       0.161122
       90       2.866667       0.151575
       91       2.733333       0.143849
       92       2.800000       0.147782
       93       3.266667       0.170440
       94       2.800000       0.149653
       95       2.933333       0.157683
       96       3.333333       0.171572
       97       3.133333       0.164975
       98       3.000000       0.159979
       99       3.066667       0.160831
      100       2.866667       0.154711
      101       2.600000       0.143613
      102       2.466667       0.138108
      103       3.466667       0.179127
      104       2.733333       0.145128
      105       3.200000       0.184017
      106       2.666667       0.156034
      107       2.266667       0.138204
      108       3.066667       0.176487
      109       2.466667       0.150047
      110       2.866667       0.165559
      111       2.600000       0.155075
      112       2.666667       0.161937
      113       2.733333       0.159789
      114       3.200000       0.187629
      115       2.466667       0.150594
      116       3.266667       0.182184
      117       3.200000       0.182618
      118       3.066667       0.176418
      119       3.066667       0.185965
      120       2.266667       0.135950
      121       2.200000       0.137052
      122       3.266667       0.188936
      123       3.133333       0.167413
      124       3.000000       0.151826
      125       2.400000       0.115466
      126       2.333333       0.110156
      127       2.466667       0.123303
      128       2.466667       0.131122
      129       2.600000       0.135123
      130       2.333333       0.124890
      131       2.266667       0.122575
      132       2.600000       0.121728
      133       2.533333       0.108584

 Density error is 0.000023528890
                          Error Threshold = 0.000204747773

       Energy                       Rydberg                            eV
   E_KohnSham               -3.626414586423              -49.339901685670
     E_Harris               -3.626421970572              -49.340002152162
      E_Fermi               +0.294597563120               +4.008205475346

 PW ALGORITHM --------------- ION=   1  ELEC=   4--------------------------------
  K-point    CG iter num      Time(Sec)
        1       7.200000       0.267732
        2       6.733333       0.255326
        3       4.800000       0.193429
        4       4.466667       0.184472
        5       4.600000       0.185311
        6       4.800000       0.195800
        7       5.666667       0.229178
        8       6.066667       0.237344
        9       4.600000       0.185866
       10       4.066667       0.170291
       11       4.400000       0.177926
       12       4.866667       0.202920
       13       5.733333       0.237487
       14       4.333333       0.182067
       15       5.000000       0.213077
[...]
 [spin1_state]        8      15.359326       0.000000
 [spin1_state]        9      16.565204       0.000000
 [spin1_state]       10      17.434387       0.000000
 [spin1_state]       11      18.659642       0.000000
 [spin1_state]       12      20.205570       0.000000
 [spin1_state]       13      22.511615       0.000000
 [spin1_state]       14      23.362897       0.000000
 [spin1_state]       15      25.978423       0.000000

 114/133 kpoint (Cartesian) = 0.666667 1.154701 0.356687 (2217 pws)
 [spin1_state]        1       4.175620       0.000042
 [spin1_state]        2       4.177294       0.000039
 [spin1_state]        3       4.386651       0.000000
 [spin1_state]        4       5.365622       0.000000
 [spin1_state]        5       5.976493       0.000000
 [spin1_state]        6       5.977497       0.000000
 [spin1_state]        7      15.274735       0.000000
 [spin1_state]        8      15.296823       0.000000
 [spin1_state]        9      15.296826       0.000000
 [spin1_state]       10      18.214552       0.000000
 [spin1_state]       11      18.595063       0.000000
 [spin1_state]       12      18.595286       0.000000
 [spin1_state]       13      25.214687       0.000000
 [spin1_state]       14      25.654754       0.000000
 [spin1_state]       15      25.656416       0.000000

 115/133 kpoint (Cartesian) = 0.000000 0.000000 0.305732 (2172 pws)
 [spin1_state]        1      -2.023095       0.001157
 [spin1_state]        2      -2.021365       0.001157
 [spin1_state]        3       9.661383       0.000000
 [spin1_state]        4       9.661501       0.000000
 [spin1_state]        5      18.176291       0.000000
 [spin1_state]        6      18.176289       0.000000
 [spin1_state]        7      18.178117       0.000000
 [spin1_state]        8      18.178117       0.000000
 [spin1_state]        9      18.581388       0.000000
 [spin1_state]       10      18.581387       0.000000
 [spin1_state]       11      18.583252       0.000000
 [spin1_state]       12      18.583252       0.000000
 [spin1_state]       13      19.148790       0.000000
 [spin1_state]       14      19.150790       0.000000
 [spin1_state]       15      21.752331       0.000000

 116/133 kpoint (Cartesian) = 0.916667 0.625463 0.305732 (2196 pws)
 [spin1_state]        1      -1.878406       0.006944
 [spin1_state]        2      -1.876674       0.006944
 [spin1_state]        3       9.791626       0.000000
 [spin1_state]        4       9.791752       0.000000
 [spin1_state]        5      15.465036       0.000000
 [spin1_state]        6      15.466870       0.000000
 [spin1_state]        7      16.759251       0.000000
 [spin1_state]        8      16.761094       0.000000
 [spin1_state]        9      17.951286       0.000000
 [spin1_state]       10      17.952930       0.000000
 [spin1_state]       11      20.288810       0.000000
 [spin1_state]       12      20.290658       0.000000
 [spin1_state]       13      21.457588       0.000000
 [spin1_state]       14      21.459359       0.000000
 [spin1_state]       15      23.283763       0.000000

 117/133 kpoint (Cartesian) = 0.833333 0.673575 0.305732 (2202 pws)
 [spin1_state]        1      -1.444632       0.006944
 [spin1_state]        2      -1.442897       0.006944
 [spin1_state]        3      10.147515       0.000000
 [spin1_state]        4      10.147706       0.000000
 [spin1_state]        5      12.577327       0.000000
 [spin1_state]        6      12.579063       0.000000
 [spin1_state]        7      15.448783       0.000000
 [spin1_state]        8      15.450627       0.000000
 [spin1_state]        9      16.830524       0.000000
 [spin1_state]       10      16.832037       0.000000
 [spin1_state]       11      22.467239       0.000000
 [spin1_state]       12      22.469083       0.000000
 [spin1_state]       13      23.468881       0.000000
 [spin1_state]       14      23.470127       0.000000
 [spin1_state]       15      24.615568       0.000000

 118/133 kpoint (Cartesian) = 0.750000 0.721688 0.305732 (2198 pws)
 [spin1_state]        1      -0.722914       0.006944
 [spin1_state]        2      -0.721174       0.006944
 [spin1_state]        3       9.569532       0.000000
 [spin1_state]        4       9.571087       0.000000
 [spin1_state]        5      11.128986       0.000000
 [spin1_state]        6      11.129352       0.000000
 [spin1_state]        7      14.426606       0.000000
 [spin1_state]        8      14.428447       0.000000
 [spin1_state]        9      15.879190       0.000000
 [spin1_state]       10      15.880623       0.000000
 [spin1_state]       11      21.686810       0.000000
 [spin1_state]       12      21.686902       0.000000
 [spin1_state]       13      24.890114       0.000000
 [spin1_state]       14      24.891869       0.000000
 [spin1_state]       15      25.880127       0.000000

 119/133 kpoint (Cartesian) = 0.666667 0.769800 0.305732 (2188 pws)
 [spin1_state]        1       0.283356       0.006944
 [spin1_state]        2       0.285106       0.006944
 [spin1_state]        3       7.260138       0.000000
 [spin1_state]        4       7.261852       0.000000
 [spin1_state]        5      11.929333       0.000000
 [spin1_state]        6      11.929583       0.000000
 [spin1_state]        7      13.695860       0.000000
 [spin1_state]        8      13.697703       0.000000
 [spin1_state]        9      15.181165       0.000000
 [spin1_state]       10      15.182477       0.000000
 [spin1_state]       11      19.388825       0.000000
 [spin1_state]       12      19.388917       0.000000
 [spin1_state]       13      25.463255       0.000000
 [spin1_state]       14      25.463286       0.000000
 [spin1_state]       15      26.638970       0.000000

 120/133 kpoint (Cartesian) = 0.583333 0.817913 0.305732 (2190 pws)
 [spin1_state]        1       1.559019       0.006944
 [spin1_state]        2       1.560797       0.006944
 [spin1_state]        3       5.143197       0.000000
 [spin1_state]        4       5.144890       0.000000
 [spin1_state]        5      12.983681       0.000000
 [spin1_state]        6      12.984171       0.000000
 [spin1_state]        7      13.257257       0.000000
 [spin1_state]        8      13.259100       0.000000
 [spin1_state]        9      14.751746       0.000000
 [spin1_state]       10      14.752693       0.000000
 [spin1_state]       11      17.483129       0.000000
 [spin1_state]       12      17.483319       0.000000
 [spin1_state]       13      25.054378       0.000000
 [spin1_state]       14      25.054446       0.000000
 [spin1_state]       15      26.498310       0.000000

 121/133 kpoint (Cartesian) = 0.500000 0.866025 0.305732 (2196 pws)
 [spin1_state]        1       2.753671       0.003472
 [spin1_state]        2       2.755593       0.003472
 [spin1_state]        3       3.665467       0.003472
 [spin1_state]        4       3.667016       0.003472
 [spin1_state]        5      13.111035       0.000000
 [spin1_state]        6      13.112878       0.000000
 [spin1_state]        7      13.659567       0.000000
 [spin1_state]        8      13.660741       0.000000
 [spin1_state]        9      14.590910       0.000000
 [spin1_state]       10      14.590948       0.000000
 [spin1_state]       11      16.541494       0.000000
 [spin1_state]       12      16.541903       0.000000
 [spin1_state]       13      24.912729       0.000000
 [spin1_state]       14      24.912797       0.000000
 [spin1_state]       15      26.411411       0.000000

 122/133 kpoint (Cartesian) = 0.916667 1.587713 0.305732 (2210 pws)
 [spin1_state]        1      -1.589167       0.006944
 [spin1_state]        2      -1.587434       0.006944
 [spin1_state]        3      10.041185       0.000000
 [spin1_state]        4      10.041336       0.000000
 [spin1_state]        5      13.749751       0.000000
 [spin1_state]        6      13.751664       0.000000
 [spin1_state]        7      14.545032       0.000000
 [spin1_state]        8      14.546613       0.000000
 [spin1_state]        9      19.114803       0.000000
 [spin1_state]       10      19.116625       0.000000
 [spin1_state]       11      19.827939       0.000000
 [spin1_state]       12      19.829493       0.000000
 [spin1_state]       13      24.319464       0.000000
 [spin1_state]       14      24.321381       0.000000
 [spin1_state]       15      24.982556       0.000000

 123/133 kpoint (Cartesian) = 0.916667 1.491488 0.305732 (2192 pws)
 [spin1_state]        1      -1.011346       0.013889
 [spin1_state]        2      -1.009608       0.013889
 [spin1_state]        3      10.357895       0.000000
 [spin1_state]        4      10.358428       0.000000
 [spin1_state]        5      11.373858       0.000000
 [spin1_state]        6      11.375372       0.000000
 [spin1_state]        7      13.200757       0.000000
 [spin1_state]        8      13.202302       0.000000
 [spin1_state]        9      18.330014       0.000000
 [spin1_state]       10      18.331667       0.000000
 [spin1_state]       11      21.657749       0.000000
 [spin1_state]       12      21.659330       0.000000
 [spin1_state]       13      23.133101       0.000000
 [spin1_state]       14      23.133190       0.000000
 [spin1_state]       15      25.005802       0.000000

 124/133 kpoint (Cartesian) = 0.916667 1.395263 0.305732 (2184 pws)
 [spin1_state]        1      -0.146889       0.013889
 [spin1_state]        2      -0.145144       0.013889
 [spin1_state]        3       8.513434       0.000000
 [spin1_state]        4       8.515145       0.000000
 [spin1_state]        5      11.286025       0.000000
 [spin1_state]        6      11.286732       0.000000
 [spin1_state]        7      12.534149       0.000000
 [spin1_state]        8      12.535295       0.000000
 [spin1_state]        9      17.450360       0.000000
 [spin1_state]       10      17.451929       0.000000
 [spin1_state]       11      20.607788       0.000000
 [spin1_state]       12      20.607905       0.000000
 [spin1_state]       13      23.569133       0.000000
 [spin1_state]       14      23.569797       0.000000
 [spin1_state]       15      24.974434       0.000000

 125/133 kpoint (Cartesian) = 0.916667 1.299038 0.305732 (2192 pws)
 [spin1_state]        1       0.997637       0.013889
 [spin1_state]        2       0.999399       0.013889
 [spin1_state]        3       6.266986       0.000000
 [spin1_state]        4       6.268703       0.000000
 [spin1_state]        5      11.314090       0.000000
 [spin1_state]        6      11.315615       0.000000
 [spin1_state]        7      12.985590       0.000000
 [spin1_state]        8      12.985898       0.000000
 [spin1_state]        9      16.694880       0.000000
 [spin1_state]       10      16.696223       0.000000
 [spin1_state]       11      18.604506       0.000000
 [spin1_state]       12      18.604797       0.000000
 [spin1_state]       13      23.374480       0.000000
 [spin1_state]       14      23.374590       0.000000
 [spin1_state]       15      27.373964       0.000000

 126/133 kpoint (Cartesian) = 0.916667 1.202813 0.305732 (2196 pws)
 [spin1_state]        1       2.373128       0.013889
 [spin1_state]        2       2.374949       0.013889
 [spin1_state]        3       4.328461       0.000000
 [spin1_state]        4       4.330118       0.000000
 [spin1_state]        5      11.122854       0.000000
 [spin1_state]        6      11.124512       0.000000
 [spin1_state]        7      14.185974       0.000000
 [spin1_state]        8      14.186159       0.000000
 [spin1_state]        9      15.667312       0.000000
 [spin1_state]       10      15.668032       0.000000
 [spin1_state]       11      17.481643       0.000000
 [spin1_state]       12      17.482535       0.000000
 [spin1_state]       13      23.132206       0.000000
 [spin1_state]       14      23.132275       0.000000
 [spin1_state]       15      28.431507       0.000000

 127/133 kpoint (Cartesian) = 0.833333 1.443376 0.305732 (2180 pws)
 [spin1_state]        1      -0.290523       0.006944
 [spin1_state]        2      -0.288780       0.006944
 [spin1_state]        3       9.806944       0.000000
 [spin1_state]        4       9.808872       0.000000
 [spin1_state]        5      10.167154       0.000000
 [spin1_state]        6      10.168308       0.000000
 [spin1_state]        7      11.984849       0.000000
 [spin1_state]        8      11.985302       0.000000
 [spin1_state]        9      20.397836       0.000000
 [spin1_state]       10      20.399616       0.000000
 [spin1_state]       11      20.647340       0.000000
 [spin1_state]       12      20.648546       0.000000
 [spin1_state]       13      21.761472       0.000000
 [spin1_state]       14      21.761519       0.000000
 [spin1_state]       15      23.262316       0.000000

 128/133 kpoint (Cartesian) = 0.833333 1.347151 0.305732 (2196 pws)
 [spin1_state]        1       0.714328       0.013889
 [spin1_state]        2       0.716083       0.013889
 [spin1_state]        3       7.639173       0.000000
 [spin1_state]        4       7.640952       0.000000
 [spin1_state]        5       9.470204       0.000000
 [spin1_state]        6       9.471775       0.000000
 [spin1_state]        7      12.689058       0.000000
 [spin1_state]        8      12.689208       0.000000
 [spin1_state]        9      19.149270       0.000000
 [spin1_state]       10      19.149886       0.000000
 [spin1_state]       11      20.329759       0.000000
 [spin1_state]       12      20.330659       0.000000
 [spin1_state]       13      21.484079       0.000000
 [spin1_state]       14      21.484617       0.000000
 [spin1_state]       15      24.040988       0.000000

 129/133 kpoint (Cartesian) = 0.833333 1.250926 0.305732 (2198 pws)
 [spin1_state]        1       1.988177       0.013889
 [spin1_state]        2       1.989960       0.013889
 [spin1_state]        3       5.549706       0.000000
 [spin1_state]        4       5.551431       0.000000
 [spin1_state]        5       9.054933       0.000000
 [spin1_state]        6       9.056563       0.000000
 [spin1_state]        7      13.874388       0.000000
 [spin1_state]        8      13.874490       0.000000
 [spin1_state]        9      17.288255       0.000000
 [spin1_state]       10      17.288490       0.000000
 [spin1_state]       11      19.752225       0.000000
 [spin1_state]       12      19.753488       0.000000
 [spin1_state]       13      21.208878       0.000000
 [spin1_state]       14      21.209214       0.000000
 [spin1_state]       15      26.800359       0.000000

 130/133 kpoint (Cartesian) = 0.833333 1.154701 0.305732 (2204 pws)
 [spin1_state]        1       3.186439       0.006944
 [spin1_state]        2       3.188360       0.006944
 [spin1_state]        3       4.074095       0.001207
 [spin1_state]        4       4.075675       0.001168
 [spin1_state]        5       8.914855       0.000000
 [spin1_state]        6       8.916496       0.000000
 [spin1_state]        7      15.018412       0.000000
 [spin1_state]        8      15.018446       0.000000
 [spin1_state]        9      15.889643       0.000000
 [spin1_state]       10      15.889884       0.000000
 [spin1_state]       11      19.584238       0.000000
 [spin1_state]       12      19.585552       0.000000
 [spin1_state]       13      21.084611       0.000000
 [spin1_state]       14      21.084922       0.000000
 [spin1_state]       15      29.616808       0.000000

 131/133 kpoint (Cartesian) = 0.750000 1.299038 0.305732 (2204 pws)
 [spin1_state]        1       1.853306       0.006944
 [spin1_state]        2       1.855081       0.006944
 [spin1_state]        3       6.745179       0.000000
 [spin1_state]        4       6.747108       0.000000
 [spin1_state]        5       7.577666       0.000000
 [spin1_state]        6       7.579102       0.000000
 [spin1_state]        7      13.752545       0.000000
 [spin1_state]        8      13.752636       0.000000
 [spin1_state]        9      18.554023       0.000000
 [spin1_state]       10      18.554044       0.000000
 [spin1_state]       11      19.382258       0.000000
 [spin1_state]       12      19.382547       0.000000
 [spin1_state]       13      22.647969       0.000000
 [spin1_state]       14      22.649786       0.000000
 [spin1_state]       15      23.895203       0.000000

 132/133 kpoint (Cartesian) = 0.750000 1.202813 0.305732 (2204 pws)
 [spin1_state]        1       3.222021       0.013889
 [spin1_state]        2       3.223853       0.013889
 [spin1_state]        3       5.103036       0.000000
 [spin1_state]        4       5.104803       0.000000
 [spin1_state]        5       7.008495       0.000000
 [spin1_state]        6       7.010037       0.000000
 [spin1_state]        7      15.076802       0.000000
 [spin1_state]        8      15.076870       0.000000
 [spin1_state]        9      16.956302       0.000000
 [spin1_state]       10      16.956364       0.000000
 [spin1_state]       11      18.868034       0.000000
 [spin1_state]       12      18.868235       0.000000
 [spin1_state]       13      22.883160       0.000000
 [spin1_state]       14      22.884803       0.000000
 [spin1_state]       15      26.378218       0.000000

 133/133 kpoint (Cartesian) = 0.666667 1.154701 0.305732 (2208 pws)
 [spin1_state]        1       4.276652       0.000000
 [spin1_state]        2       4.278563       0.000000
 [spin1_state]        3       4.834746       0.000000
 [spin1_state]        4       4.836729       0.000000
 [spin1_state]        5       5.798564       0.000000
 [spin1_state]        6       5.799810       0.000000
 [spin1_state]        7      16.076565       0.000000
 [spin1_state]        8      16.076697       0.000000
 [spin1_state]        9      16.704081       0.000000
 [spin1_state]       10      16.704264       0.000000
 [spin1_state]       11      17.740010       0.000000
 [spin1_state]       12      17.740354       0.000000
 [spin1_state]       13      25.660548       0.000000
 [spin1_state]       14      25.662348       0.000000
 [spin1_state]       15      25.744646       0.000000



 --------------------------------------------
 !FINAL_ETOT_IS -49.3403389844745988 eV
 --------------------------------------------






  |CLASS_NAME---------|NAME---------------|TIME(Sec)-----|CALLS----|AVG------|PER%-------
  B              Run_pw     plane_wave_line        145.115         1    145.11    100.00%
  C             Cell_PW        opt_cells_pw         144.94         1    144.94     99.88%
  X                 FFT               FFT3D         104.38    112671      0.00     71.92%
  C            wavefunc             wfcinit           5.48         1      5.48      3.78%
  G           Hamilt_PW      diagH_subspace          22.21       665      0.03     15.30%
  H           Hamilt_PW               h_psi         116.50     42026      0.00     80.28%
  H           Hamilt_PW                vloc         115.54     42026      0.00     79.61%
  C                Ions         opt_ions_pw         139.23         1    139.23     95.94%
  D           Electrons     self_consistent         139.23         1    139.23     95.94%
  E           Electrons             c_bands          71.57         3     23.86     49.32%
  F              Hamilt            diagH_pw         127.09       665      0.19     87.58%
  G            Diago_CG                diag         109.23       665      0.16     75.27%
  E           electrons             c_bands          52.81         3     17.60     36.39%
 ----------------------------------------------------------------------------------------

 CLASS_NAME---------|NAME---------------|MEMORY(MB)--------
                                         80.3829
             wavefunc                 evc        67.4883
         Charge_Pulay                Rrho         2.6367
         Charge_Pulay               dRrho         2.3071
         Charge_Pulay                drho         2.3071
               WF_igk                 igk         1.1248
 ----------------------------------------------------------
