 *********************************************************
 *                                                       *
 *                  WELCOME TO ABACUS v3.0               *
 *                                                       *
 *            'Atomic-orbital Based Ab-initio            *
 *                  Computation at UStc'                 *
 *                                                       *
 *          Website: http://abacus.ustc.edu.cn/          *
 *                                                       *
 *********************************************************
 Mon Apr 17 15:02:18 2023
 MAKE THE DIR         : OUT.blpstest/
Notice: symbol 'mg_locpsp' is not an element symbol!!!! set the covalent radius to be 0.
 UNIFORM GRID DIM     : 27 * 27 * 45
 UNIFORM GRID DIM(BIG): 27 * 27 * 45
func,idXC_GGA_X_PBE 101
func,idXC_GGA_C_PBE 130
 DONE(0.160099   SEC) : SETUP UNITCELL
 DONE(0.214571   SEC) : SYMMETRY
 DONE(0.240888   SEC) : INIT K-POINTS
 ---------------------------------------------------------
 Self-consistent calculations for electrons
 ---------------------------------------------------------
 SPIN    KPOINTS         PROCESSORS  
 1       133             1           
 ---------------------------------------------------------
 Use plane wave basis
 ---------------------------------------------------------
 ELEMENT NATOM       XC          
 Mg      2           
 ---------------------------------------------------------
 Initial plane wave basis and FFT box
 ---------------------------------------------------------
 DONE(0.246284   SEC) : INIT BASIS
 DONE(0.246309   SEC) : INIT PHI
 DONE(0.434781   SEC) : LOCAL POTENTIAL
 DONE(0.434812   SEC) : NON-LOCAL POTENTIAL
 START CHARGE      : atomic
 DONE(0.684757   SEC) : INIT POTENTIAL
 DONE(0.684889   SEC) : INIT OPTIMIZATION
 DONE(0.688177   SEC) : INIT KEDF
======================== Running OFDFT ========================
Iter        Etot(Ha)          Theta      PotNorm     deltaE(Ha)
0     -1.583614259255e+00   2.000e-01   1.706e-01   -1.584e+00  
1     -1.737044359874e+00   1.518e-01   1.315e-01   -1.534e-01  
2     -1.741965187001e+00   1.475e-02   1.776e-02   -4.921e-03  
3     -1.742082675510e+00   2.629e-03   1.089e-02   -1.175e-04  
4     -1.742139386610e+00   3.118e-03   8.559e-04   -5.671e-05  
5     -1.742139651398e+00   1.632e-04   7.117e-05   -2.648e-07  
6     -1.742139654354e+00   1.488e-05   4.446e-05   -2.956e-09  

  |CLASS_NAME---------|NAME---------------|TIME(Sec)-----|CALLS----|AVG------|PER%-------
                       total               22.759         21        1.1       1e+02     %
   Driver              driver_line         22.746         1         23        1e+02     %
   PW_Basis            setuptransform      0.13218        1         0.13      0.58      %
   ppcell_vl           init_vloc           0.18834        1         0.19      0.83      %
   Charge              atomic_rho          0.19713        1         0.2       0.87      %
   PW_Basis            recip2real          3.7457         1484      0.0025    16        %
   PW_Basis            gathers_scatterp    0.49244        1484      0.00033   2.2       %
   Potential           update_from_charge  14.48          165       0.088     64        %
   Potential           cal_v_eff           14.476         165       0.088     64        %
   H_Hartree_pw        v_hartree           1.3634         165       0.0083    6         %
   PW_Basis            real2recip          5.6879         1812      0.0031    25        %
   PW_Basis            gatherp_scatters    0.51608        1812      0.00028   2.3       %
   PotXC               cal_v_eff           13.017         165       0.079     57        %
   XC_Functional       v_xc                11.076         83        0.13      49        %
   XC_Functional       v_xc_libxc          12.885         165       0.078     57        %
   ESolver_OF          Run                 22.069         1         22        97        %
   KEDF_TF             tf_potential        1.0697         164       0.0065    4.7       %
   KEDF_WT             wt_potential        4.8278         164       0.029     21        %
   KEDF_vW             vw_potential        1.1229         164       0.0068    4.9       %
 ----------------------------------------------------------------------------------------

 START  Time  : Mon Apr 17 15:02:18 2023
 FINISH Time  : Mon Apr 17 15:02:41 2023
 TOTAL  Time  : 23
 SEE INFORMATION IN : OUT.blpstest/
