 *********************************************************
 *                                                       *
 *                  WELCOME TO ABACUS v3.0               *
 *                                                       *
 *            'Atomic-orbital Based Ab-initio            *
 *                  Computation at UStc'                 *
 *                                                       *
 *          Website: http://abacus.ustc.edu.cn/          *
 *                                                       *
 *********************************************************
 Tue May  2 12:51:30 2023
 MAKE THE DIR         : OUT.blpstest/
Notice: symbol 'mg_locpsp' is not an element symbol!!!! set the covalent radius to be 0.
 UNIFORM GRID DIM     : 30 * 30 * 30
 UNIFORM GRID DIM(BIG): 30 * 30 * 30
func,idXC_GGA_X_PBE 101
func,idXC_GGA_C_PBE 130
 DONE(0.188579   SEC) : SETUP UNITCELL
 DONE(0.248821   SEC) : SYMMETRY
 DONE(0.249642   SEC) : INIT K-POINTS
 ---------------------------------------------------------
 Self-consistent calculations for electrons
 ---------------------------------------------------------
 SPIN    KPOINTS         PROCESSORS  
 1       1               1           
 ---------------------------------------------------------
 Use plane wave basis
 ---------------------------------------------------------
 ELEMENT NATOM       XC          
 Mg      1           
 ---------------------------------------------------------
 Initial plane wave basis and FFT box
 ---------------------------------------------------------
 DONE(0.251725   SEC) : INIT BASIS
 DONE(0.251795   SEC) : INIT PHI
 DONE(0.289939   SEC) : LOCAL POTENTIAL
 DONE(0.290049   SEC) : NON-LOCAL POTENTIAL
 START CHARGE      : atomic
 DONE(0.424464   SEC) : INIT POTENTIAL
 DONE(0.425018   SEC) : INIT OPTIMIZATION
Default type: double
 DONE(0.427795   SEC) : INIT KEDF
======================== Running OFDFT ========================
Iter        Etot(Ha)          Theta      PotNorm     deltaE(Ha)
0     -8.339502592746e-01   2.000e-01   9.241e-02   -8.340e-01  
1     -8.766180042202e-01   1.191e-01   6.637e-02   -4.267e-02  
2     -8.779522381083e-01   1.182e-02   7.668e-03   -1.334e-03  
3     -8.779808524812e-01   2.510e-03   8.464e-04   -2.861e-05  
4     -8.779811599949e-01   2.688e-04   1.327e-04   -3.075e-07  
5     -8.779811739717e-01   6.585e-05   3.201e-05   -1.398e-08  

  |CLASS_NAME---------|NAME---------------|TIME(Sec)-----|CALLS----|AVG------|PER%-------
                       total               10.25          21        0.49      1e+02     %
   Driver              driver_line         10.222         1         10        1e+02     %
   PW_Basis            setuptransform      0.14486        1         0.14      1.4       %
   PW_Basis            recip2real          1.8774         1646      0.0011    18        %
   PW_Basis            gathers_scatterp    0.23551        1646      0.00014   2.3       %
   Potential           update_from_charge  6.074          127       0.048     59        %
   Potential           cal_v_eff           6.0692         127       0.048     59        %
   H_Hartree_pw        v_hartree           0.47965        127       0.0038    4.7       %
   PW_Basis            real2recip          2.1202         1646      0.0013    21        %
   PW_Basis            gatherp_scatters    0.23746        1646      0.00014   2.3       %
   PotXC               cal_v_eff           5.551          127       0.044     54        %
   XC_Functional       v_xc                4.951          64        0.077     48        %
   XC_Functional       v_xc_libxc          5.4718         127       0.043     53        %
   ESolver_OF          Run                 9.8205         1         9.8       96        %
   KEDF_LKT            LKT_potential       3.1358         126       0.025     31        %
   KEDF_vW             vw_potential        0.41436        126       0.0033    4         %
 ----------------------------------------------------------------------------------------

 START  Time  : Tue May  2 12:51:30 2023
 FINISH Time  : Tue May  2 12:51:40 2023
 TOTAL  Time  : 10
 SEE INFORMATION IN : OUT.blpstest/
