 *********************************************************
 *                                                       *
 *                  WELCOME TO ABACUS v3.0               *
 *                                                       *
 *            'Atomic-orbital Based Ab-initio            *
 *                  Computation at UStc'                 *
 *                                                       *
 *          Website: http://abacus.ustc.edu.cn/          *
 *                                                       *
 *********************************************************
 Tue May  2 12:45:52 2023
 MAKE THE DIR         : OUT.blpstest/
Notice: symbol 'al_locpsp' is not an element symbol!!!! set the covalent radius to be 0.
 UNIFORM GRID DIM     : 27 * 27 * 45
 UNIFORM GRID DIM(BIG): 27 * 27 * 45
func,idXC_GGA_X_PBE 101
func,idXC_GGA_C_PBE 130
 DONE(0.142262   SEC) : SETUP UNITCELL
 DONE(0.194163   SEC) : SYMMETRY
 DONE(0.221511   SEC) : INIT K-POINTS
 ---------------------------------------------------------
 Self-consistent calculations for electrons
 ---------------------------------------------------------
 SPIN    KPOINTS         PROCESSORS  
 1       133             1           
 ---------------------------------------------------------
 Use plane wave basis
 ---------------------------------------------------------
 ELEMENT NATOM       XC          
 Al      2           
 ---------------------------------------------------------
 Initial plane wave basis and FFT box
 ---------------------------------------------------------
 DONE(0.226941   SEC) : INIT BASIS
 DONE(0.226967   SEC) : INIT PHI
 DONE(0.417817   SEC) : LOCAL POTENTIAL
 DONE(0.41785    SEC) : NON-LOCAL POTENTIAL
 START CHARGE      : atomic
 DONE(0.703476   SEC) : INIT POTENTIAL
 DONE(0.70365    SEC) : INIT OPTIMIZATION
Default type: double
 DONE(0.706016   SEC) : INIT KEDF
======================== Running OFDFT ========================
Iter        Etot(Ha)          Theta      PotNorm     deltaE(Ha)
0     -4.045713397538e+00   2.000e-01   1.858e-01   -4.046e+00  
1     -4.198904965525e+00   1.091e-01   1.630e-01   -1.532e-01  
2     -4.209881734253e+00   1.640e-02   3.487e-02   -1.098e-02  
3     -4.210204558068e+00   3.098e-03   8.205e-03   -3.228e-04  
4     -4.210253214164e+00   2.047e-03   6.545e-04   -4.866e-05  
5     -4.210253401077e+00   8.900e-05   8.095e-05   -1.869e-07  
6     -4.210253405695e+00   1.774e-05   1.369e-05   -4.618e-09  

  |CLASS_NAME---------|NAME---------------|TIME(Sec)-----|CALLS----|AVG------|PER%-------
                       total               17.647         21        0.84      1e+02     %
   Driver              driver_line         17.64          1         18        1e+02     %
   PW_Basis            setuptransform      0.12335        1         0.12      0.7       %
   ppcell_vl           init_vloc           0.19071        1         0.19      1.1       %
   Charge              atomic_rho          0.20363        1         0.2       1.2       %
   PW_Basis            recip2real          3.9498         1841      0.0021    22        %
   PW_Basis            gathers_scatterp    0.45838        1841      0.00025   2.6       %
   Potential           update_from_charge  10.132         142       0.071     57        %
   Potential           cal_v_eff           10.128         142       0.071     57        %
   H_Hartree_pw        v_hartree           0.92242        142       0.0065    5.2       %
   PW_Basis            real2recip          4.2173         1841      0.0023    24        %
   PW_Basis            gatherp_scatters    0.36433        1841      0.0002    2.1       %
   PotXC               cal_v_eff           9.1547         142       0.064     52        %
   XC_Functional       v_xc                8.5336         71        0.12      48        %
   XC_Functional       v_xc_libxc          9.0621         142       0.064     51        %
   ESolver_OF          Run                 16.94          1         17        96        %
   KEDF_LKT            LKT_potential       5.6651         141       0.04      32        %
   KEDF_vW             vw_potential        0.79163        141       0.0056    4.5       %
 ----------------------------------------------------------------------------------------

 START  Time  : Tue May  2 12:45:52 2023
 FINISH Time  : Tue May  2 12:46:10 2023
 TOTAL  Time  : 18
 SEE INFORMATION IN : OUT.blpstest/
