 *********************************************************
 *                                                       *
 *                  WELCOME TO ABACUS v3.0               *
 *                                                       *
 *            'Atomic-orbital Based Ab-initio            *
 *                  Computation at UStc'                 *
 *                                                       *
 *          Website: http://abacus.ustc.edu.cn/          *
 *                                                       *
 *********************************************************
 Wed Apr 26 05:34:38 2023
 MAKE THE DIR         : OUT.oftest/
Notice: symbol 'mg_locpsp' is not an element symbol!!!! set the covalent radius to be 0.
 UNIFORM GRID DIM     : 45 * 45 * 45
 UNIFORM GRID DIM(BIG): 45 * 45 * 45
func,idXC_GGA_X_PBE 101
func,idXC_GGA_C_PBE 130
 DONE(0.287547   SEC) : SETUP UNITCELL
 DONE(0.345284   SEC) : SYMMETRY
 DONE(0.345574   SEC) : INIT K-POINTS
 ---------------------------------------------------------
 Self-consistent calculations for electrons
 ---------------------------------------------------------
 SPIN    KPOINTS         PROCESSORS  
 1       1               1           
 ---------------------------------------------------------
 Use plane wave basis
 ---------------------------------------------------------
 ELEMENT NATOM       XC          
 Mg      1           
 ---------------------------------------------------------
 Initial plane wave basis and FFT box
 ---------------------------------------------------------
 DONE(0.349788   SEC) : INIT BASIS
 DONE(0.349824   SEC) : INIT PHI
 DONE(0.484846   SEC) : LOCAL POTENTIAL
 DONE(0.484889   SEC) : NON-LOCAL POTENTIAL
 START CHARGE      : atomic
 DONE(0.798407   SEC) : INIT POTENTIAL
 DONE(0.798918   SEC) : INIT OPTIMIZATION
Default type: double
nnode = 10
nlayer = 3
feg_net_F = 0.540933
 DONE(0.896062   SEC) : INIT KEDF
======================== Running OFDFT ========================
Iter        Etot(Ha)          Theta      PotNorm     deltaE(Ha)
0     -8.518920919339e-01   2.000e-01   8.854e-02   -8.519e-01  
1     -8.831552388248e-01   7.220e-02   6.237e-02   -3.126e-02  
2     -8.844127645458e-01   1.565e-02   3.125e-02   -1.258e-03  
3     -8.845371707700e-01   3.131e-03   1.377e-02   -1.244e-04  
4     -8.846102121898e-01   5.284e-03   8.012e-03   -7.304e-05  
5     -8.846194226466e-01   9.080e-04   2.660e-03   -9.210e-06  
6     -8.846212221775e-01   4.162e-04   2.394e-03   -1.800e-06  
7     -8.846222196609e-01   2.981e-04   1.646e-03   -9.975e-07  
8     -8.846227683151e-01   1.712e-04   1.276e-03   -5.487e-07  
9     -8.846244257146e-01   1.046e-03   1.842e-04   -1.657e-06  
10    -8.846244314196e-01   1.513e-05   1.106e-04   -5.705e-09  
11    -8.846244391093e-01   5.323e-05   2.597e-05   -7.690e-09  

  |CLASS_NAME---------|NAME---------------|TIME(Sec)-----|CALLS----|AVG------|PER%-------
                       total               952.61         21        45        1e+02     %
   Driver              driver_line         952.6          1         9.5e+02   1e+02     %
   PW_Basis            setuptransform      0.24757        1         0.25      0.026     %
   ppcell_vl           init_vloc           0.13483        1         0.13      0.014     %
   Charge              atomic_rho          0.15136        1         0.15      0.016     %
   PW_Basis            recip2real          23.623         6168      0.0038    2.5       %
   PW_Basis            gathers_scatterp    1.8953         6168      0.00031   0.2       %
   Potential           init_pot            0.1558         1         0.16      0.016     %
   Potential           update_from_charge  32.998         309       0.11      3.5       %
   Potential           cal_v_eff           32.991         309       0.11      3.5       %
   H_Hartree_pw        v_hartree           2.7337         309       0.0088    0.29      %
   PW_Basis            real2recip          23.256         6168      0.0038    2.4       %
   PW_Basis            gatherp_scatters    1.1721         6168      0.00019   0.12      %
   PotXC               cal_v_eff           30.158         309       0.098     3.2       %
   XC_Functional       v_xc                473.39         155       3.1       50        %
   XC_Functional       v_xc_libxc          30.116         309       0.097     3.2       %
   ESolver_OF          Run                 951.71         1         9.5e+02   1e+02     %
   KEDF_vW             vw_potential        2.6484         308       0.0086    0.28      %
 ----------------------------------------------------------------------------------------

 START  Time  : Wed Apr 26 05:34:38 2023
 FINISH Time  : Wed Apr 26 05:50:31 2023
 TOTAL  Time  : 9.5e+02
 SEE INFORMATION IN : OUT.oftest/
