 *********************************************************
 *                                                       *
 *                  WELCOME TO ABACUS v3.0               *
 *                                                       *
 *            'Atomic-orbital Based Ab-initio            *
 *                  Computation at UStc'                 *
 *                                                       *
 *          Website: http://abacus.ustc.edu.cn/          *
 *                                                       *
 *********************************************************
 Mon Apr 17 14:43:51 2023
 MAKE THE DIR         : OUT.blpstest/
Notice: symbol 'al_locpsp' is not an element symbol!!!! set the covalent radius to be 0.
 UNIFORM GRID DIM     : 27 * 27 * 45
 UNIFORM GRID DIM(BIG): 27 * 27 * 45
func,idXC_GGA_X_PBE 101
func,idXC_GGA_C_PBE 130
 DONE(0.313029   SEC) : SETUP UNITCELL
 DONE(0.429598   SEC) : SYMMETRY
 DONE(0.491315   SEC) : INIT K-POINTS
 ---------------------------------------------------------
 Self-consistent calculations for electrons
 ---------------------------------------------------------
 SPIN    KPOINTS         PROCESSORS  
 1       133             1           
 ---------------------------------------------------------
 Use plane wave basis
 ---------------------------------------------------------
 ELEMENT NATOM       XC          
 Al      2           
 ---------------------------------------------------------
 Initial plane wave basis and FFT box
 ---------------------------------------------------------
 DONE(0.497148   SEC) : INIT BASIS
 DONE(0.497179   SEC) : INIT PHI
 DONE(0.916456   SEC) : LOCAL POTENTIAL
 DONE(0.916498   SEC) : NON-LOCAL POTENTIAL
 START CHARGE      : atomic
 DONE(1.4418     SEC) : INIT POTENTIAL
 DONE(1.44199    SEC) : INIT OPTIMIZATION
 DONE(1.44415    SEC) : INIT KEDF
======================== Running OFDFT ========================
Iter        Etot(Ha)          Theta      PotNorm     deltaE(Ha)
0     -4.034622481034e+00   2.000e-01   2.135e-01   -4.035e+00  
1     -4.040223662197e+00   2.254e-02   2.335e-01   -5.601e-03  
2     -4.052851348933e+00   3.080e-02   2.659e-01   -1.263e-02  
3     -4.135282493947e+00   5.211e-02   3.274e-01   -8.243e-02  
4     -4.200840373515e+00   4.458e-02   3.907e-02   -6.556e-02  
5     -4.201326432131e+00   3.537e-03   3.768e-03   -4.861e-04  
6     -4.201334344925e+00   8.927e-04   3.031e-04   -7.913e-06  
7     -4.201334404303e+00   5.307e-05   1.929e-04   -5.938e-08  
8     -4.201334429613e+00   5.214e-05   2.317e-05   -2.531e-08  

  |CLASS_NAME---------|NAME---------------|TIME(Sec)-----|CALLS----|AVG------|PER%-------
                       total               25.35          21        1.2       1e+02     %
   Driver              driver_line         25.308         1         25        1e+02     %
   PW_Basis            setuptransform      0.25827        1         0.26      1         %
   ppcell_vl           init_vloc           0.41909        1         0.42      1.7       %
   Charge              atomic_rho          0.41709        1         0.42      1.6       %
   PW_Basis            recip2real          4.1238         2114      0.002     16        %
   PW_Basis            gathers_scatterp    0.29123        2114      0.00014   1.1       %
   Potential           init_pot            0.10547        1         0.11      0.42      %
   Potential           update_from_charge  14.543         235       0.062     57        %
   Potential           cal_v_eff           14.54          235       0.062     57        %
   H_Hartree_pw        v_hartree           1.2706         235       0.0054    5         %
   PW_Basis            real2recip          5.1389         2582      0.002     20        %
   PW_Basis            gatherp_scatters    0.33197        2582      0.00013   1.3       %
   PotXC               cal_v_eff           13.225         235       0.056     52        %
   XC_Functional       v_xc                11.839         118       0.1       47        %
   XC_Functional       v_xc_libxc          13.136         235       0.056     52        %
   ESolver_OF          Run                 23.905         1         24        94        %
   KEDF_TF             tf_potential        1.6622         234       0.0071    6.6       %
   KEDF_WT             wt_potential        6.2293         234       0.027     25        %
   KEDF_vW             vw_potential        1.0665         234       0.0046    4.2       %
 ----------------------------------------------------------------------------------------

 START  Time  : Mon Apr 17 14:43:51 2023
 FINISH Time  : Mon Apr 17 14:44:17 2023
 TOTAL  Time  : 26
 SEE INFORMATION IN : OUT.blpstest/
