 *********************************************************
 *                                                       *
 *                  WELCOME TO ABACUS v3.0               *
 *                                                       *
 *            'Atomic-orbital Based Ab-initio            *
 *                  Computation at UStc'                 *
 *                                                       *
 *          Website: http://abacus.ustc.edu.cn/          *
 *                                                       *
 *********************************************************
 Tue May  2 12:49:08 2023
 MAKE THE DIR         : OUT.blpstest/
Notice: symbol 'Li_locpsp' is not an element symbol!!!! set the covalent radius to be 0.
 UNIFORM GRID DIM     : 27 * 27 * 27
 UNIFORM GRID DIM(BIG): 27 * 27 * 27
func,idXC_GGA_X_PBE 101
func,idXC_GGA_C_PBE 130
 DONE(0.115978   SEC) : SETUP UNITCELL
 DONE(0.170815   SEC) : SYMMETRY
 DONE(0.171041   SEC) : INIT K-POINTS
 ---------------------------------------------------------
 Self-consistent calculations for electrons
 ---------------------------------------------------------
 SPIN    KPOINTS         PROCESSORS  
 1       1               1           
 ---------------------------------------------------------
 Use plane wave basis
 ---------------------------------------------------------
 ELEMENT NATOM       XC          
 Li      1           
 ---------------------------------------------------------
 Initial plane wave basis and FFT box
 ---------------------------------------------------------
 DONE(0.17217    SEC) : INIT BASIS
 DONE(0.172195   SEC) : INIT PHI
 DONE(0.213827   SEC) : LOCAL POTENTIAL
 DONE(0.213859   SEC) : NON-LOCAL POTENTIAL
 START CHARGE      : atomic
 DONE(0.291696   SEC) : INIT POTENTIAL
 DONE(0.291768   SEC) : INIT OPTIMIZATION
Default type: double
 DONE(0.292937   SEC) : INIT KEDF
======================== Running OFDFT ========================
Iter        Etot(Ha)          Theta      PotNorm     deltaE(Ha)
0     -2.666460853530e-01   2.000e-01   7.615e-02   -2.666e-01  
1     -2.776066023681e-01   8.007e-02   3.226e-02   -1.096e-02  
2     -2.778929771060e-01   5.664e-03   7.147e-03   -2.864e-04  
3     -2.779087949483e-01   2.855e-03   1.046e-03   -1.582e-05  
4     -2.779094625592e-01   6.664e-04   3.502e-04   -6.676e-07  
5     -2.779094935343e-01   8.443e-05   2.013e-04   -3.098e-08  

  |CLASS_NAME---------|NAME---------------|TIME(Sec)-----|CALLS----|AVG------|PER%-------
                       total               10.209         21        0.49      1e+02     %
   Driver              driver_line         10.197         1         10        1e+02     %
   PW_Basis            recip2real          2.1076         1776      0.0012    21        %
   PW_Basis            gathers_scatterp    0.19292        1776      0.00011   1.9       %
   Potential           update_from_charge  5.7837         137       0.042     57        %
   Potential           cal_v_eff           5.7817         137       0.042     57        %
   H_Hartree_pw        v_hartree           0.50698        137       0.0037    5         %
   PW_Basis            real2recip          2.4475         1776      0.0014    24        %
   PW_Basis            gatherp_scatters    0.191          1776      0.00011   1.9       %
   PotXC               cal_v_eff           5.2444         137       0.038     51        %
   XC_Functional       v_xc                4.9136         69        0.071     48        %
   XC_Functional       v_xc_libxc          5.1796         137       0.038     51        %
   ESolver_OF          Run                 9.9144         1         9.9       97        %
   KEDF_LKT            LKT_potential       3.455          136       0.025     34        %
   KEDF_vW             vw_potential        0.46585        136       0.0034    4.6       %
 ----------------------------------------------------------------------------------------

 START  Time  : Tue May  2 12:49:08 2023
 FINISH Time  : Tue May  2 12:49:19 2023
 TOTAL  Time  : 11
 SEE INFORMATION IN : OUT.blpstest/
