 *********************************************************
 *                                                       *
 *                  WELCOME TO ABACUS v3.0               *
 *                                                       *
 *            'Atomic-orbital Based Ab-initio            *
 *                  Computation at UStc'                 *
 *                                                       *
 *          Website: http://abacus.ustc.edu.cn/          *
 *                                                       *
 *********************************************************
 Tue May  2 12:50:59 2023
 MAKE THE DIR         : OUT.blpstest/
Notice: symbol 'mg_locpsp' is not an element symbol!!!! set the covalent radius to be 0.
 UNIFORM GRID DIM     : 32 * 32 * 32
 UNIFORM GRID DIM(BIG): 32 * 32 * 32
func,idXC_GGA_X_PBE 101
func,idXC_GGA_C_PBE 130
 DONE(0.166643   SEC) : SETUP UNITCELL
 DONE(0.221849   SEC) : SYMMETRY
 DONE(0.222059   SEC) : INIT K-POINTS
 ---------------------------------------------------------
 Self-consistent calculations for electrons
 ---------------------------------------------------------
 SPIN    KPOINTS         PROCESSORS  
 1       1               1           
 ---------------------------------------------------------
 Use plane wave basis
 ---------------------------------------------------------
 ELEMENT NATOM       XC          
 Mg      1           
 ---------------------------------------------------------
 Initial plane wave basis and FFT box
 ---------------------------------------------------------
 DONE(0.224085   SEC) : INIT BASIS
 DONE(0.224112   SEC) : INIT PHI
 DONE(0.283501   SEC) : LOCAL POTENTIAL
 DONE(0.283534   SEC) : NON-LOCAL POTENTIAL
 START CHARGE      : atomic
 DONE(0.395704   SEC) : INIT POTENTIAL
 DONE(0.395838   SEC) : INIT OPTIMIZATION
Default type: double
 DONE(0.397772   SEC) : INIT KEDF
======================== Running OFDFT ========================
Iter        Etot(Ha)          Theta      PotNorm     deltaE(Ha)
0     -8.496668934379e-01   2.000e-01   1.013e-01   -8.497e-01  
1     -8.507671429363e-01   1.809e-02   1.105e-01   -1.100e-03  
2     -8.896085783684e-01   9.613e-02   5.559e-02   -3.884e-02  
3     -8.909351531847e-01   1.334e-02   4.435e-03   -1.327e-03  
4     -8.909447611664e-01   1.828e-03   3.303e-04   -9.608e-06  
5     -8.909447943643e-01   6.456e-05   3.029e-05   -3.320e-08  
6     -8.909447946765e-01   5.470e-06   1.692e-05   -3.122e-10  

  |CLASS_NAME---------|NAME---------------|TIME(Sec)-----|CALLS----|AVG------|PER%-------
                       total               29.139         21        1.4       1e+02     %
   Driver              driver_line         29.129         1         29        1e+02     %
   PW_Basis            setuptransform      0.14348        1         0.14      0.49      %
   PW_Basis            recip2real          5.7917         2231      0.0026    20        %
   PW_Basis            gathers_scatterp    1.1588         2231      0.00052   4         %
   Potential           update_from_charge  17.587         172       0.1       60        %
   Potential           cal_v_eff           17.583         172       0.1       60        %
   H_Hartree_pw        v_hartree           1.5086         172       0.0088    5.2       %
   PW_Basis            real2recip          5.872          2231      0.0026    20        %
   PW_Basis            gatherp_scatters    0.85431        2231      0.00038   2.9       %
   PotXC               cal_v_eff           15.946         172       0.093     55        %
   XC_Functional       v_xc                14.41          86        0.17      49        %
   XC_Functional       v_xc_libxc          15.682         172       0.091     54        %
   ESolver_OF          Run                 28.736         1         29        99        %
   KEDF_LKT            LKT_potential       8.9346         171       0.052     31        %
   KEDF_vW             vw_potential        1.2921         171       0.0076    4.4       %
 ----------------------------------------------------------------------------------------

 START  Time  : Tue May  2 12:50:59 2023
 FINISH Time  : Tue May  2 12:51:28 2023
 TOTAL  Time  : 29
 SEE INFORMATION IN : OUT.blpstest/
