 *********************************************************
 *                                                       *
 *                  WELCOME TO ABACUS v3.0               *
 *                                                       *
 *            'Atomic-orbital Based Ab-initio            *
 *                  Computation at UStc'                 *
 *                                                       *
 *          Website: http://abacus.ustc.edu.cn/          *
 *                                                       *
 *********************************************************
 Wed Dec 28 12:42:27 2022
 MAKE THE DIR         : OUT.blpstest/
Notice: symbol 'mg_locpsp' is not an element symbol!!!! set the covalent radius to be 0.
 UNIFORM GRID DIM     : 30 * 30 * 50
 UNIFORM GRID DIM(BIG): 30 * 30 * 50
func,idXC_GGA_X_PBE 101
func,idXC_GGA_C_PBE 130
 DONE(0.189979   SEC) : SETUP UNITCELL
 DONE(0.245578   SEC) : SYMMETRY
 DONE(0.272829   SEC) : INIT K-POINTS
 ---------------------------------------------------------
 Self-consistent calculations for electrons
 ---------------------------------------------------------
 SPIN    KPOINTS         PROCESSORS  
 1       133             1           
 ---------------------------------------------------------
 Use plane wave basis
 ---------------------------------------------------------
 ELEMENT NATOM       XC          
 Mg      2           
 ---------------------------------------------------------
 Initial plane wave basis and FFT box
 ---------------------------------------------------------
 DONE(0.372812   SEC) : INIT PLANEWAVE
 MEMORY FOR PSI (MB)  : 29.5159
 DONE(0.458803   SEC) : LOCAL POTENTIAL
 DONE(0.458847   SEC) : NON-LOCAL POTENTIAL
 DONE(0.458917   SEC) : INIT BASIS
 START CHARGE      : atomic
 DONE(0.612963   SEC) : INIT SCF
 ITER   ETOT(eV)       EDIFF(eV)      DRHO       TIME(s)    
 CG1    -4.804359e+01  0.000000e+00   9.497e-02  3.589e+01  
 CG2    -4.846513e+01  -4.215381e-01  8.927e-03  1.474e+01  
 CG3    -4.847588e+01  -1.075604e-02  3.152e-05  1.969e+01  
 CG4    -4.847713e+01  -1.247207e-03  1.115e-05  2.841e+01  
 CG5    -4.847715e+01  -2.126864e-05  4.849e-06  1.343e+01  
 CG6    -4.847716e+01  -9.443401e-06  3.508e-07  1.176e+01  
 CG7    -4.847716e+01  -4.580543e-07  8.846e-08  1.482e+01  
 CG8    -4.847716e+01  -6.259745e-08  4.164e-09  1.153e+01  
 CG9    -4.847716e+01  -1.193373e-08  9.152e-11  1.391e+01  

  |CLASS_NAME---------|NAME---------------|TIME(Sec)-----|CALLS----|AVG------|PER%-------
                       total               164.81         17        9.7       1e+02     %
   Driver              driver_line         164.8          1         1.6e+02   1e+02     %
   PW_Basis            setuptransform      0.16771        1         0.17      0.1       %
   ESolver_KS_PW       Run                 164.34         1         1.6e+02   1e+02     %
   PW_Basis            recip2real          0.16821        62        0.0027    0.1       %
   Potential           update_from_charge  0.90715        10        0.091     0.55      %
   Potential           cal_v_eff           0.90501        10        0.091     0.55      %
   PW_Basis            real2recip          0.28779        98        0.0029    0.17      %
   PotXC               cal_v_eff           0.82854        10        0.083     0.5       %
   XC_Functional       v_xc                97.745         5         20        59        %
   XC_Functional       v_xc_libxc          0.82278        10        0.082     0.5       %
   HSolverPW           solve               163.12         9         18        99        %
   DiagoIterAssist     diagH_subspace      32.366         1197      0.027     20        %
   OperatorPW          hPsi                147.85         26802     0.0055    90        %
   Operator            EkineticPW          0.74082        26802     2.8e-05   0.45      %
   Operator            VeffPW              146.73         26802     0.0055    89        %
   PW_Basis_K          recip2real          79.392         35495     0.0022    48        %
   PW_Basis_K          gathers_scatterp    7.6733         35495     0.00022   4.7       %
   PW_Basis_K          real2recip          61.058         32787     0.0019    37        %
   PW_Basis_K          gatherp_scatters    2.3772         32787     7.3e-05   1.4       %
   DiagoIterAssist     LAPACK_subspace     0.15171        1197      0.00013   0.092     %
   DiagoCG             diag_once           123.06         1197      0.1       75        %
   ElecStatePW         psiToRho            6.9052         9         0.77      4.2       %
 ----------------------------------------------------------------------------------------

 START  Time  : Wed Dec 28 12:42:27 2022
 FINISH Time  : Wed Dec 28 12:45:12 2022
 TOTAL  Time  : 1.6e+02
 SEE INFORMATION IN : OUT.blpstest/
