                                                                                     
                             WELCOME TO ABACUS                                       
                                                                                     
               'Atomic-orbital Based Ab-initio Computation at UStc'                  
                                                                                     
                     Website: http://abacus.ustc.edu.cn/                             
                                                                                     
    Version: Parallel, in development
    Processor Number is 1
    Start Time is Mon Sep  5 19:54:49 2022
                                                                                     
 ------------------------------------------------------------------------------------

 READING GENERAL INFORMATION
                           global_out_dir = OUT.blpstest/
                           global_in_card = INPUT
                               pseudo_dir = 
                              orbital_dir = 
                              pseudo_type = auto
                                    DRANK = 1
                                    DSIZE = 1
                                   DCOLOR = 1
                                    GRANK = 1
                                    GSIZE = 1
 The esolver type has been set to : ksdft_pw




 >>>>>>>>>>>>>>>>>>>>>>>>>>>>>>>>>>>>>>>>>>>>>>>>>>>>>>>>>>>>>>>>>>>>>>
 |                                                                    |
 | Reading atom information in unitcell:                              |
 | From the input file and the structure file we know the number of   |
 | different elments in this unitcell, then we list the detail        |
 | information for each element, especially the zeta and polar atomic |
 | orbital number for each element. The total atom number is counted. |
 | We calculate the nearest atom distance for each atom and show the  |
 | Cartesian and Direct coordinates for each atom. We list the file   |
 | address for atomic orbitals. The volume and the lattice vectors    |
 | in real and reciprocal space is also shown.                        |
 |                                                                    |
 <<<<<<<<<<<<<<<<<<<<<<<<<<<<<<<<<<<<<<<<<<<<<<<<<<<<<<<<<<<<<<<<<<<<<<




 READING UNITCELL INFORMATION
                                    ntype = 1
                 atom label for species 1 = Mg
                  lattice constant (Bohr) = 6.02293
              lattice constant (Angstrom) = 3.1872

 READING ATOM TYPE 1
                               atom label = Mg
                      L=0, number of zeta = 1
                      L=1, number of zeta = 1
                      L=2, number of zeta = 1
             number of atom for this type = 2
                      start magnetization = FALSE
                      start magnetization = FALSE

                        TOTAL ATOM NUMBER = 2

 DIRECT COORDINATES
         atom                   x                   y                   z                 mag                  vx                  vy                  vz
     taud_Mg1                   0                   0                   0                   0                   0                   0                   0
     taud_Mg2            0.666667            0.333333                 0.5                   0                   0                   0                   0


                          Volume (Bohr^3) = 309.446
                             Volume (A^3) = 45.8551

 Lattice vectors: (Cartesian coordinate: in unit of a_0)
                   +1                  +0                  +0
                 -0.5           +0.866025                  +0
                   +0                  +0            +1.63542
 Reciprocal vectors: (Cartesian coordinate: in unit of 2 pi/a_0)
                   +1            +0.57735                  -0
                   +0             +1.1547                  -0
                   +0                  -0           +0.611463




 >>>>>>>>>>>>>>>>>>>>>>>>>>>>>>>>>>>>>>>>>>>>>>>>>>>>>>>>>>>>>>>>>>>>>>
 |                                                                    |
 | Reading pseudopotentials files:                                    |
 | The pseudopotential file is in UPF format. The 'NC' indicates that |
 | the type of pseudopotential is 'norm conserving'. Functional of    |
 | exchange and correlation is decided by 4 given parameters in UPF   |
 | file.  We also read in the 'core correction' if there exists.      |
 | Also we can read the valence electrons number and the maximal      |
 | angular momentum used in this pseudopotential. We also read in the |
 | trail wave function, trail atomic density and local-pseudopotential|
 | on logrithmic grid. The non-local pseudopotential projector is also|
 | read in if there is any.                                           |
 |                                                                    |
 <<<<<<<<<<<<<<<<<<<<<<<<<<<<<<<<<<<<<<<<<<<<<<<<<<<<<<<<<<<<<<<<<<<<<<




                PAO radial cut off (Bohr) = 15

 Read in pseudopotential file is Mg.pbe-mt_fhi.UPF
                     pseudopotential type = NC
          exchange-correlation functional = PBE
                 nonlocal core correction = 1
                        valence electrons = 2
                                     lmax = 3
                           number of zeta = 4
                     number of projectors = 3
                           L of projector = 0
                           L of projector = 1
                           L of projector = 3
     initial pseudo atomic orbital number = 32
                                   NLOCAL = 18




 >>>>>>>>>>>>>>>>>>>>>>>>>>>>>>>>>>>>>>>>>>>>>>>>>>>>>>>>>>>>>>>>>>>>>>
 |                                                                    |
 | Setup plane waves of charge/potential:                             |
 | Use the energy cutoff and the lattice vectors to generate the      |
 | dimensions of FFT grid. The number of FFT grid on each processor   |
 | is 'nrxx'. The number of plane wave basis in reciprocal space is   |
 | different for charege/potential and wave functions. We also set    |
 | the 'sticks' for the parallel of FFT. The number of plane waves    |
 | is 'npw' in each processor.                                        |
 <<<<<<<<<<<<<<<<<<<<<<<<<<<<<<<<<<<<<<<<<<<<<<<<<<<<<<<<<<<<<<<<<<<<<<





 SETUP THE PLANE WAVE BASIS
 energy cutoff for charge/potential (unit:Ry) = 240
          [fft grid for charge/potential] = 30, 30, 50
                      [fft grid division] = 1, 1, 1
      [big fft grid for charge/potential] = 30, 30, 50
                                     nbxx = 45000
                                     nrxx = 45000

 SETUP PLANE WAVES FOR CHARGE/POTENTIAL
                    number of plane waves = 19447
                         number of sticks = 595

 PARALLEL PW FOR CHARGE/POTENTIAL
     PROC   COLUMNS(POT)             PW
        1            595          19447
 --------------- sum -------------------
        1            595          19447
                            number of |g| = 987
                                  max |g| = 220.307
                                  min |g| = 0

 SETUP THE ELECTRONS NUMBER
            electron number of element Mg = 2
      total electron number of element Mg = 4
                           occupied bands = 2
                                   NBANDS = 15
 DONE : SETUP UNITCELL Time : 0.0457446 (SEC)





 >>>>>>>>>>>>>>>>>>>>>>>>>>>>>>>>>>>>>>>>>>>>>>>>>>>>>>>>>>>>>>>>>>>>>>
 |                                                                    |
 | Doing symmetry analysis:                                           |
 | We calculate the norm of 3 vectors and the angles between them,    |
 | the type of Bravais lattice is given. We can judge if the unticell |
 | is a primitive cell. Finally we give the point group operation for |
 | this unitcell. We we use the point group operations to do symmetry |
 | analysis on given k-point mesh and the charge density.             |
 |                                                                    |
 <<<<<<<<<<<<<<<<<<<<<<<<<<<<<<<<<<<<<<<<<<<<<<<<<<<<<<<<<<<<<<<<<<<<<<




 LATTICE VECTORS: (CARTESIAN COORDINATE: IN UNIT OF A0)
                   +1                  +0                  +0
                 -0.5           +0.866025                  +0
                   +0                  +0            +1.63542
                       right hand lattice = 1
                                   NORM_A = 1
                                   NORM_B = 1
                                   NORM_C = 1.63542
                           ALPHA (DEGREE) = 120
                           BETA  (DEGREE) = 90
                           GAMMA (DEGREE) = 90
                             BRAVAIS TYPE = 4
                     BRAVAIS LATTICE NAME = 04. Hexagonal cell
                                    IBRAV = 4
                                  BRAVAIS = HEXAGONAL CELL
                       LATTICE CONSTANT A = 5.57418
                                C/A RATIO = 0.663979
                                    ibrav = 4
                        ROTATION MATRICES = 24
              PURE POINT GROUP OPERATIONS = 12
                   SPACE GROUP OPERATIONS = 12
                                       C2 = 3
                                       C3 = 2
                                       C4 = 0
                                       C6 = 0
                                       S1 = 4
                                       S3 = 2
                                       S4 = 0
                                       S6 = 0
                              POINT GROUP = D_3h
Warning : If the optimal symmetric configuration is not the input configuration, 
you have to manually change configurations, ABACUS would only calculate the input structure!
 DONE : SYMMETRY Time : 0.0796797 (SEC)





 >>>>>>>>>>>>>>>>>>>>>>>>>>>>>>>>>>>>>>>>>>>>>>>>>>>>>>>>>>>>>>>>>>>>>>
 |                                                                    |
 | Setup K-points                                                     |
 | We setup the k-points according to input parameters.               |
 | The reduced k-points are set according to symmetry operations.     |
 | We treat the spin as another set of k-points.                      |
 |                                                                    |
 <<<<<<<<<<<<<<<<<<<<<<<<<<<<<<<<<<<<<<<<<<<<<<<<<<<<<<<<<<<<<<<<<<<<<<





 SETUP K-POINTS
                                    nspin = 1
                   Input type of k points = Monkhorst-Pack(Gamma)
                                   nkstot = 1728
                               nkstot_ibz = 133
      IBZ             DirectX             DirectY             DirectZ              Weight    ibz2bz
        1                   0                   0                   0         0.000578704         0
        2            0.916667           0.0833333                   0          0.00347222         1
        3            0.833333            0.166667                   0          0.00347222         2
        4                0.75                0.25                   0          0.00347222         3
        5            0.666667            0.333333                   0          0.00347222         4
        6            0.583333            0.416667                   0          0.00347222         5
        7                 0.5                 0.5                   0          0.00173611         6
        8            0.916667            0.916667                   0          0.00347222        13
        9            0.916667            0.833333                   0          0.00694444        14
       10            0.916667                0.75                   0          0.00694444        15
       11            0.916667            0.666667                   0          0.00694444        16
       12            0.916667            0.583333                   0          0.00694444        17
       13            0.833333            0.833333                   0          0.00347222        26
       14            0.833333                0.75                   0          0.00694444        27
       15            0.833333            0.666667                   0          0.00694444        28
       16            0.833333            0.583333                   0          0.00347222        29
       17                0.75                0.75                   0          0.00347222        39
       18                0.75            0.666667                   0          0.00694444        40
       19            0.666667            0.666667                   0          0.00115741        52
       20                   0                   0            0.916667          0.00115741       144
       21            0.916667           0.0833333            0.916667          0.00694444       145
       22            0.833333            0.166667            0.916667          0.00694444       146
       23                0.75                0.25            0.916667          0.00694444       147
       24            0.666667            0.333333            0.916667          0.00694444       148
       25            0.583333            0.416667            0.916667          0.00694444       149
       26                 0.5                 0.5            0.916667          0.00347222       150
       27            0.916667            0.916667            0.916667          0.00694444       157
       28            0.916667            0.833333            0.916667           0.0138889       158
       29            0.916667                0.75            0.916667           0.0138889       159
       30            0.916667            0.666667            0.916667           0.0138889       160
       31            0.916667            0.583333            0.916667           0.0138889       161
       32            0.833333            0.833333            0.916667          0.00694444       170
       33            0.833333                0.75            0.916667           0.0138889       171
       34            0.833333            0.666667            0.916667           0.0138889       172
       35            0.833333            0.583333            0.916667          0.00694444       173
       36                0.75                0.75            0.916667          0.00694444       183
       37                0.75            0.666667            0.916667           0.0138889       184
       38            0.666667            0.666667            0.916667          0.00231481       196
       39                   0                   0            0.833333          0.00115741       288
       40            0.916667           0.0833333            0.833333          0.00694444       289
       41            0.833333            0.166667            0.833333          0.00694444       290
       42                0.75                0.25            0.833333          0.00694444       291
       43            0.666667            0.333333            0.833333          0.00694444       292
       44            0.583333            0.416667            0.833333          0.00694444       293
       45                 0.5                 0.5            0.833333          0.00347222       294
       46            0.916667            0.916667            0.833333          0.00694444       301
       47            0.916667            0.833333            0.833333           0.0138889       302
       48            0.916667                0.75            0.833333           0.0138889       303
       49            0.916667            0.666667            0.833333           0.0138889       304
       50            0.916667            0.583333            0.833333           0.0138889       305
       51            0.833333            0.833333            0.833333          0.00694444       314
       52            0.833333                0.75            0.833333           0.0138889       315
       53            0.833333            0.666667            0.833333           0.0138889       316
       54            0.833333            0.583333            0.833333          0.00694444       317
       55                0.75                0.75            0.833333          0.00694444       327
       56                0.75            0.666667            0.833333           0.0138889       328
       57            0.666667            0.666667            0.833333          0.00231481       340
       58                   0                   0                0.75          0.00115741       432
       59            0.916667           0.0833333                0.75          0.00694444       433
       60            0.833333            0.166667                0.75          0.00694444       434
       61                0.75                0.25                0.75          0.00694444       435
       62            0.666667            0.333333                0.75          0.00694444       436
       63            0.583333            0.416667                0.75          0.00694444       437
       64                 0.5                 0.5                0.75          0.00347222       438
       65            0.916667            0.916667                0.75          0.00694444       445
       66            0.916667            0.833333                0.75           0.0138889       446
       67            0.916667                0.75                0.75           0.0138889       447
       68            0.916667            0.666667                0.75           0.0138889       448
       69            0.916667            0.583333                0.75           0.0138889       449
       70            0.833333            0.833333                0.75          0.00694444       458
       71            0.833333                0.75                0.75           0.0138889       459
       72            0.833333            0.666667                0.75           0.0138889       460
       73            0.833333            0.583333                0.75          0.00694444       461
       74                0.75                0.75                0.75          0.00694444       471
       75                0.75            0.666667                0.75           0.0138889       472
       76            0.666667            0.666667                0.75          0.00231481       484
       77                   0                   0            0.666667          0.00115741       576
       78            0.916667           0.0833333            0.666667          0.00694444       577
       79            0.833333            0.166667            0.666667          0.00694444       578
       80                0.75                0.25            0.666667          0.00694444       579
       81            0.666667            0.333333            0.666667          0.00694444       580
       82            0.583333            0.416667            0.666667          0.00694444       581
       83                 0.5                 0.5            0.666667          0.00347222       582
       84            0.916667            0.916667            0.666667          0.00694444       589
       85            0.916667            0.833333            0.666667           0.0138889       590
       86            0.916667                0.75            0.666667           0.0138889       591
       87            0.916667            0.666667            0.666667           0.0138889       592
       88            0.916667            0.583333            0.666667           0.0138889       593
       89            0.833333            0.833333            0.666667          0.00694444       602
       90            0.833333                0.75            0.666667           0.0138889       603
       91            0.833333            0.666667            0.666667           0.0138889       604
       92            0.833333            0.583333            0.666667          0.00694444       605
       93                0.75                0.75            0.666667          0.00694444       615
       94                0.75            0.666667            0.666667           0.0138889       616
       95            0.666667            0.666667            0.666667          0.00231481       628
       96                   0                   0            0.583333          0.00115741       720
       97            0.916667           0.0833333            0.583333          0.00694444       721
       98            0.833333            0.166667            0.583333          0.00694444       722
       99                0.75                0.25            0.583333          0.00694444       723
      100            0.666667            0.333333            0.583333          0.00694444       724
      101            0.583333            0.416667            0.583333          0.00694444       725
      102                 0.5                 0.5            0.583333          0.00347222       726
      103            0.916667            0.916667            0.583333          0.00694444       733
      104            0.916667            0.833333            0.583333           0.0138889       734
      105            0.916667                0.75            0.583333           0.0138889       735
      106            0.916667            0.666667            0.583333           0.0138889       736
      107            0.916667            0.583333            0.583333           0.0138889       737
      108            0.833333            0.833333            0.583333          0.00694444       746
      109            0.833333                0.75            0.583333           0.0138889       747
      110            0.833333            0.666667            0.583333           0.0138889       748
      111            0.833333            0.583333            0.583333          0.00694444       749
      112                0.75                0.75            0.583333          0.00694444       759
      113                0.75            0.666667            0.583333           0.0138889       760
      114            0.666667            0.666667            0.583333          0.00231481       772
      115                   0                   0                 0.5         0.000578704       864
      116            0.916667           0.0833333                 0.5          0.00347222       865
      117            0.833333            0.166667                 0.5          0.00347222       866
      118                0.75                0.25                 0.5          0.00347222       867
      119            0.666667            0.333333                 0.5          0.00347222       868
      120            0.583333            0.416667                 0.5          0.00347222       869
      121                 0.5                 0.5                 0.5          0.00173611       870
      122            0.916667            0.916667                 0.5          0.00347222       877
      123            0.916667            0.833333                 0.5          0.00694444       878
      124            0.916667                0.75                 0.5          0.00694444       879
      125            0.916667            0.666667                 0.5          0.00694444       880
      126            0.916667            0.583333                 0.5          0.00694444       881
      127            0.833333            0.833333                 0.5          0.00347222       890
      128            0.833333                0.75                 0.5          0.00694444       891
      129            0.833333            0.666667                 0.5          0.00694444       892
      130            0.833333            0.583333                 0.5          0.00347222       893
      131                0.75                0.75                 0.5          0.00347222       903
      132                0.75            0.666667                 0.5          0.00694444       904
      133            0.666667            0.666667                 0.5          0.00115741       916
                               nkstot now = 133

  KPOINTS            DIRECT_X            DIRECT_Y            DIRECT_Z              WEIGHT
        1                   0                   0                   0         0.000578704
        2            0.916667           0.0833333                   0          0.00347222
        3            0.833333            0.166667                   0          0.00347222
        4                0.75                0.25                   0          0.00347222
        5            0.666667            0.333333                   0          0.00347222
        6            0.583333            0.416667                   0          0.00347222
        7                 0.5                 0.5                   0          0.00173611
        8            0.916667            0.916667                   0          0.00347222
        9            0.916667            0.833333                   0          0.00694444
       10            0.916667                0.75                   0          0.00694444
       11            0.916667            0.666667                   0          0.00694444
       12            0.916667            0.583333                   0          0.00694444
       13            0.833333            0.833333                   0          0.00347222
       14            0.833333                0.75                   0          0.00694444
       15            0.833333            0.666667                   0          0.00694444
       16            0.833333            0.583333                   0          0.00347222
       17                0.75                0.75                   0          0.00347222
       18                0.75            0.666667                   0          0.00694444
       19            0.666667            0.666667                   0          0.00115741
       20                   0                   0            0.916667          0.00115741
       21            0.916667           0.0833333            0.916667          0.00694444
       22            0.833333            0.166667            0.916667          0.00694444
       23                0.75                0.25            0.916667          0.00694444
       24            0.666667            0.333333            0.916667          0.00694444
       25            0.583333            0.416667            0.916667          0.00694444
       26                 0.5                 0.5            0.916667          0.00347222
       27            0.916667            0.916667            0.916667          0.00694444
       28            0.916667            0.833333            0.916667           0.0138889
       29            0.916667                0.75            0.916667           0.0138889
       30            0.916667            0.666667            0.916667           0.0138889
       31            0.916667            0.583333            0.916667           0.0138889
       32            0.833333            0.833333            0.916667          0.00694444
       33            0.833333                0.75            0.916667           0.0138889
       34            0.833333            0.666667            0.916667           0.0138889
       35            0.833333            0.583333            0.916667          0.00694444
       36                0.75                0.75            0.916667          0.00694444
       37                0.75            0.666667            0.916667           0.0138889
       38            0.666667            0.666667            0.916667          0.00231481
       39                   0                   0            0.833333          0.00115741
       40            0.916667           0.0833333            0.833333          0.00694444
       41            0.833333            0.166667            0.833333          0.00694444
       42                0.75                0.25            0.833333          0.00694444
       43            0.666667            0.333333            0.833333          0.00694444
       44            0.583333            0.416667            0.833333          0.00694444
       45                 0.5                 0.5            0.833333          0.00347222
       46            0.916667            0.916667            0.833333          0.00694444
       47            0.916667            0.833333            0.833333           0.0138889
       48            0.916667                0.75            0.833333           0.0138889
       49            0.916667            0.666667            0.833333           0.0138889
       50            0.916667            0.583333            0.833333           0.0138889
       51            0.833333            0.833333            0.833333          0.00694444
       52            0.833333                0.75            0.833333           0.0138889
       53            0.833333            0.666667            0.833333           0.0138889
       54            0.833333            0.583333            0.833333          0.00694444
       55                0.75                0.75            0.833333          0.00694444
       56                0.75            0.666667            0.833333           0.0138889
       57            0.666667            0.666667            0.833333          0.00231481
       58                   0                   0                0.75          0.00115741
       59            0.916667           0.0833333                0.75          0.00694444
       60            0.833333            0.166667                0.75          0.00694444
       61                0.75                0.25                0.75          0.00694444
       62            0.666667            0.333333                0.75          0.00694444
       63            0.583333            0.416667                0.75          0.00694444
       64                 0.5                 0.5                0.75          0.00347222
       65            0.916667            0.916667                0.75          0.00694444
       66            0.916667            0.833333                0.75           0.0138889
       67            0.916667                0.75                0.75           0.0138889
       68            0.916667            0.666667                0.75           0.0138889
       69            0.916667            0.583333                0.75           0.0138889
       70            0.833333            0.833333                0.75          0.00694444
       71            0.833333                0.75                0.75           0.0138889
       72            0.833333            0.666667                0.75           0.0138889
       73            0.833333            0.583333                0.75          0.00694444
       74                0.75                0.75                0.75          0.00694444
       75                0.75            0.666667                0.75           0.0138889
       76            0.666667            0.666667                0.75          0.00231481
       77                   0                   0            0.666667          0.00115741
       78            0.916667           0.0833333            0.666667          0.00694444
       79            0.833333            0.166667            0.666667          0.00694444
       80                0.75                0.25            0.666667          0.00694444
       81            0.666667            0.333333            0.666667          0.00694444
       82            0.583333            0.416667            0.666667          0.00694444
       83                 0.5                 0.5            0.666667          0.00347222
       84            0.916667            0.916667            0.666667          0.00694444
       85            0.916667            0.833333            0.666667           0.0138889
       86            0.916667                0.75            0.666667           0.0138889
       87            0.916667            0.666667            0.666667           0.0138889
       88            0.916667            0.583333            0.666667           0.0138889
       89            0.833333            0.833333            0.666667          0.00694444
       90            0.833333                0.75            0.666667           0.0138889
       91            0.833333            0.666667            0.666667           0.0138889
       92            0.833333            0.583333            0.666667          0.00694444
       93                0.75                0.75            0.666667          0.00694444
       94                0.75            0.666667            0.666667           0.0138889
       95            0.666667            0.666667            0.666667          0.00231481
       96                   0                   0            0.583333          0.00115741
       97            0.916667           0.0833333            0.583333          0.00694444
       98            0.833333            0.166667            0.583333          0.00694444
       99                0.75                0.25            0.583333          0.00694444
      100            0.666667            0.333333            0.583333          0.00694444
      101            0.583333            0.416667            0.583333          0.00694444
      102                 0.5                 0.5            0.583333          0.00347222
      103            0.916667            0.916667            0.583333          0.00694444
      104            0.916667            0.833333            0.583333           0.0138889
      105            0.916667                0.75            0.583333           0.0138889
      106            0.916667            0.666667            0.583333           0.0138889
      107            0.916667            0.583333            0.583333           0.0138889
      108            0.833333            0.833333            0.583333          0.00694444
      109            0.833333                0.75            0.583333           0.0138889
      110            0.833333            0.666667            0.583333           0.0138889
      111            0.833333            0.583333            0.583333          0.00694444
      112                0.75                0.75            0.583333          0.00694444
      113                0.75            0.666667            0.583333           0.0138889
      114            0.666667            0.666667            0.583333          0.00231481
      115                   0                   0                 0.5         0.000578704
      116            0.916667           0.0833333                 0.5          0.00347222
      117            0.833333            0.166667                 0.5          0.00347222
      118                0.75                0.25                 0.5          0.00347222
      119            0.666667            0.333333                 0.5          0.00347222
      120            0.583333            0.416667                 0.5          0.00347222
      121                 0.5                 0.5                 0.5          0.00173611
      122            0.916667            0.916667                 0.5          0.00347222
      123            0.916667            0.833333                 0.5          0.00694444
      124            0.916667                0.75                 0.5          0.00694444
      125            0.916667            0.666667                 0.5          0.00694444
      126            0.916667            0.583333                 0.5          0.00694444
      127            0.833333            0.833333                 0.5          0.00347222
      128            0.833333                0.75                 0.5          0.00694444
      129            0.833333            0.666667                 0.5          0.00694444
      130            0.833333            0.583333                 0.5          0.00347222
      131                0.75                0.75                 0.5          0.00347222
      132                0.75            0.666667                 0.5          0.00694444
      133            0.666667            0.666667                 0.5          0.00115741

           k-point number in this process = 133
       minimum distributed K point number = 133

  KPOINTS         CARTESIAN_X         CARTESIAN_Y         CARTESIAN_Z              WEIGHT
        1                   0                   0                   0          0.00115741
        2            0.916667            0.625463                   0          0.00694444
        3            0.833333            0.673575                   0          0.00694444
        4                0.75            0.721688                   0          0.00694444
        5            0.666667              0.7698                   0          0.00694444
        6            0.583333            0.817913                   0          0.00694444
        7                 0.5            0.866025                   0          0.00347222
        8            0.916667             1.58771                   0          0.00694444
        9            0.916667             1.49149                   0           0.0138889
       10            0.916667             1.39526                   0           0.0138889
       11            0.916667             1.29904                   0           0.0138889
       12            0.916667             1.20281                   0           0.0138889
       13            0.833333             1.44338                   0          0.00694444
       14            0.833333             1.34715                   0           0.0138889
       15            0.833333             1.25093                   0           0.0138889
       16            0.833333              1.1547                   0          0.00694444
       17                0.75             1.29904                   0          0.00694444
       18                0.75             1.20281                   0           0.0138889
       19            0.666667              1.1547                   0          0.00231481
       20                   0                   0            0.560508          0.00231481
       21            0.916667            0.625463            0.560508           0.0138889
       22            0.833333            0.673575            0.560508           0.0138889
       23                0.75            0.721688            0.560508           0.0138889
       24            0.666667              0.7698            0.560508           0.0138889
       25            0.583333            0.817913            0.560508           0.0138889
       26                 0.5            0.866025            0.560508          0.00694444
       27            0.916667             1.58771            0.560508           0.0138889
       28            0.916667             1.49149            0.560508           0.0277778
       29            0.916667             1.39526            0.560508           0.0277778
       30            0.916667             1.29904            0.560508           0.0277778
       31            0.916667             1.20281            0.560508           0.0277778
       32            0.833333             1.44338            0.560508           0.0138889
       33            0.833333             1.34715            0.560508           0.0277778
       34            0.833333             1.25093            0.560508           0.0277778
       35            0.833333              1.1547            0.560508           0.0138889
       36                0.75             1.29904            0.560508           0.0138889
       37                0.75             1.20281            0.560508           0.0277778
       38            0.666667              1.1547            0.560508          0.00462963
       39                   0                   0            0.509553          0.00231481
       40            0.916667            0.625463            0.509553           0.0138889
       41            0.833333            0.673575            0.509553           0.0138889
       42                0.75            0.721688            0.509553           0.0138889
       43            0.666667              0.7698            0.509553           0.0138889
       44            0.583333            0.817913            0.509553           0.0138889
       45                 0.5            0.866025            0.509553          0.00694444
       46            0.916667             1.58771            0.509553           0.0138889
       47            0.916667             1.49149            0.509553           0.0277778
       48            0.916667             1.39526            0.509553           0.0277778
       49            0.916667             1.29904            0.509553           0.0277778
       50            0.916667             1.20281            0.509553           0.0277778
       51            0.833333             1.44338            0.509553           0.0138889
       52            0.833333             1.34715            0.509553           0.0277778
       53            0.833333             1.25093            0.509553           0.0277778
       54            0.833333              1.1547            0.509553           0.0138889
       55                0.75             1.29904            0.509553           0.0138889
       56                0.75             1.20281            0.509553           0.0277778
       57            0.666667              1.1547            0.509553          0.00462963
       58                   0                   0            0.458597          0.00231481
       59            0.916667            0.625463            0.458597           0.0138889
       60            0.833333            0.673575            0.458597           0.0138889
       61                0.75            0.721688            0.458597           0.0138889
       62            0.666667              0.7698            0.458597           0.0138889
       63            0.583333            0.817913            0.458597           0.0138889
       64                 0.5            0.866025            0.458597          0.00694444
       65            0.916667             1.58771            0.458597           0.0138889
       66            0.916667             1.49149            0.458597           0.0277778
       67            0.916667             1.39526            0.458597           0.0277778
       68            0.916667             1.29904            0.458597           0.0277778
       69            0.916667             1.20281            0.458597           0.0277778
       70            0.833333             1.44338            0.458597           0.0138889
       71            0.833333             1.34715            0.458597           0.0277778
       72            0.833333             1.25093            0.458597           0.0277778
       73            0.833333              1.1547            0.458597           0.0138889
       74                0.75             1.29904            0.458597           0.0138889
       75                0.75             1.20281            0.458597           0.0277778
       76            0.666667              1.1547            0.458597          0.00462963
       77                   0                   0            0.407642          0.00231481
       78            0.916667            0.625463            0.407642           0.0138889
       79            0.833333            0.673575            0.407642           0.0138889
       80                0.75            0.721688            0.407642           0.0138889
       81            0.666667              0.7698            0.407642           0.0138889
       82            0.583333            0.817913            0.407642           0.0138889
       83                 0.5            0.866025            0.407642          0.00694444
       84            0.916667             1.58771            0.407642           0.0138889
       85            0.916667             1.49149            0.407642           0.0277778
       86            0.916667             1.39526            0.407642           0.0277778
       87            0.916667             1.29904            0.407642           0.0277778
       88            0.916667             1.20281            0.407642           0.0277778
       89            0.833333             1.44338            0.407642           0.0138889
       90            0.833333             1.34715            0.407642           0.0277778
       91            0.833333             1.25093            0.407642           0.0277778
       92            0.833333              1.1547            0.407642           0.0138889
       93                0.75             1.29904            0.407642           0.0138889
       94                0.75             1.20281            0.407642           0.0277778
       95            0.666667              1.1547            0.407642          0.00462963
       96                   0                   0            0.356687          0.00231481
       97            0.916667            0.625463            0.356687           0.0138889
       98            0.833333            0.673575            0.356687           0.0138889
       99                0.75            0.721688            0.356687           0.0138889
      100            0.666667              0.7698            0.356687           0.0138889
      101            0.583333            0.817913            0.356687           0.0138889
      102                 0.5            0.866025            0.356687          0.00694444
      103            0.916667             1.58771            0.356687           0.0138889
      104            0.916667             1.49149            0.356687           0.0277778
      105            0.916667             1.39526            0.356687           0.0277778
      106            0.916667             1.29904            0.356687           0.0277778
      107            0.916667             1.20281            0.356687           0.0277778
      108            0.833333             1.44338            0.356687           0.0138889
      109            0.833333             1.34715            0.356687           0.0277778
      110            0.833333             1.25093            0.356687           0.0277778
      111            0.833333              1.1547            0.356687           0.0138889
      112                0.75             1.29904            0.356687           0.0138889
      113                0.75             1.20281            0.356687           0.0277778
      114            0.666667              1.1547            0.356687          0.00462963
      115                   0                   0            0.305732          0.00115741
      116            0.916667            0.625463            0.305732          0.00694444
      117            0.833333            0.673575            0.305732          0.00694444
      118                0.75            0.721688            0.305732          0.00694444
      119            0.666667              0.7698            0.305732          0.00694444
      120            0.583333            0.817913            0.305732          0.00694444
      121                 0.5            0.866025            0.305732          0.00347222
      122            0.916667             1.58771            0.305732          0.00694444
      123            0.916667             1.49149            0.305732           0.0138889
      124            0.916667             1.39526            0.305732           0.0138889
      125            0.916667             1.29904            0.305732           0.0138889
      126            0.916667             1.20281            0.305732           0.0138889
      127            0.833333             1.44338            0.305732          0.00694444
      128            0.833333             1.34715            0.305732           0.0138889
      129            0.833333             1.25093            0.305732           0.0138889
      130            0.833333              1.1547            0.305732          0.00694444
      131                0.75             1.29904            0.305732          0.00694444
      132                0.75             1.20281            0.305732           0.0138889
      133            0.666667              1.1547            0.305732          0.00231481

  KPOINTS            DIRECT_X            DIRECT_Y            DIRECT_Z              WEIGHT
        1                   0                   0                   0          0.00115741
        2            0.916667           0.0833333                   0          0.00694444
        3            0.833333            0.166667                   0          0.00694444
        4                0.75                0.25                   0          0.00694444
        5            0.666667            0.333333                   0          0.00694444
        6            0.583333            0.416667                   0          0.00694444
        7                 0.5                 0.5                   0          0.00347222
        8            0.916667            0.916667                   0          0.00694444
        9            0.916667            0.833333                   0           0.0138889
       10            0.916667                0.75                   0           0.0138889
       11            0.916667            0.666667                   0           0.0138889
       12            0.916667            0.583333                   0           0.0138889
       13            0.833333            0.833333                   0          0.00694444
       14            0.833333                0.75                   0           0.0138889
       15            0.833333            0.666667                   0           0.0138889
       16            0.833333            0.583333                   0          0.00694444
       17                0.75                0.75                   0          0.00694444
       18                0.75            0.666667                   0           0.0138889
       19            0.666667            0.666667                   0          0.00231481
       20                   0                   0            0.916667          0.00231481
       21            0.916667           0.0833333            0.916667           0.0138889
       22            0.833333            0.166667            0.916667           0.0138889
       23                0.75                0.25            0.916667           0.0138889
       24            0.666667            0.333333            0.916667           0.0138889
       25            0.583333            0.416667            0.916667           0.0138889
       26                 0.5                 0.5            0.916667          0.00694444
       27            0.916667            0.916667            0.916667           0.0138889
       28            0.916667            0.833333            0.916667           0.0277778
       29            0.916667                0.75            0.916667           0.0277778
       30            0.916667            0.666667            0.916667           0.0277778
       31            0.916667            0.583333            0.916667           0.0277778
       32            0.833333            0.833333            0.916667           0.0138889
       33            0.833333                0.75            0.916667           0.0277778
       34            0.833333            0.666667            0.916667           0.0277778
       35            0.833333            0.583333            0.916667           0.0138889
       36                0.75                0.75            0.916667           0.0138889
       37                0.75            0.666667            0.916667           0.0277778
       38            0.666667            0.666667            0.916667          0.00462963
       39                   0                   0            0.833333          0.00231481
       40            0.916667           0.0833333            0.833333           0.0138889
       41            0.833333            0.166667            0.833333           0.0138889
       42                0.75                0.25            0.833333           0.0138889
       43            0.666667            0.333333            0.833333           0.0138889
       44            0.583333            0.416667            0.833333           0.0138889
       45                 0.5                 0.5            0.833333          0.00694444
       46            0.916667            0.916667            0.833333           0.0138889
       47            0.916667            0.833333            0.833333           0.0277778
       48            0.916667                0.75            0.833333           0.0277778
       49            0.916667            0.666667            0.833333           0.0277778
       50            0.916667            0.583333            0.833333           0.0277778
       51            0.833333            0.833333            0.833333           0.0138889
       52            0.833333                0.75            0.833333           0.0277778
       53            0.833333            0.666667            0.833333           0.0277778
       54            0.833333            0.583333            0.833333           0.0138889
       55                0.75                0.75            0.833333           0.0138889
       56                0.75            0.666667            0.833333           0.0277778
       57            0.666667            0.666667            0.833333          0.00462963
       58                   0                   0                0.75          0.00231481
       59            0.916667           0.0833333                0.75           0.0138889
       60            0.833333            0.166667                0.75           0.0138889
       61                0.75                0.25                0.75           0.0138889
       62            0.666667            0.333333                0.75           0.0138889
       63            0.583333            0.416667                0.75           0.0138889
       64                 0.5                 0.5                0.75          0.00694444
       65            0.916667            0.916667                0.75           0.0138889
       66            0.916667            0.833333                0.75           0.0277778
       67            0.916667                0.75                0.75           0.0277778
       68            0.916667            0.666667                0.75           0.0277778
       69            0.916667            0.583333                0.75           0.0277778
       70            0.833333            0.833333                0.75           0.0138889
       71            0.833333                0.75                0.75           0.0277778
       72            0.833333            0.666667                0.75           0.0277778
       73            0.833333            0.583333                0.75           0.0138889
       74                0.75                0.75                0.75           0.0138889
       75                0.75            0.666667                0.75           0.0277778
       76            0.666667            0.666667                0.75          0.00462963
       77                   0                   0            0.666667          0.00231481
       78            0.916667           0.0833333            0.666667           0.0138889
       79            0.833333            0.166667            0.666667           0.0138889
       80                0.75                0.25            0.666667           0.0138889
       81            0.666667            0.333333            0.666667           0.0138889
       82            0.583333            0.416667            0.666667           0.0138889
       83                 0.5                 0.5            0.666667          0.00694444
       84            0.916667            0.916667            0.666667           0.0138889
       85            0.916667            0.833333            0.666667           0.0277778
       86            0.916667                0.75            0.666667           0.0277778
       87            0.916667            0.666667            0.666667           0.0277778
       88            0.916667            0.583333            0.666667           0.0277778
       89            0.833333            0.833333            0.666667           0.0138889
       90            0.833333                0.75            0.666667           0.0277778
       91            0.833333            0.666667            0.666667           0.0277778
       92            0.833333            0.583333            0.666667           0.0138889
       93                0.75                0.75            0.666667           0.0138889
       94                0.75            0.666667            0.666667           0.0277778
       95            0.666667            0.666667            0.666667          0.00462963
       96                   0                   0            0.583333          0.00231481
       97            0.916667           0.0833333            0.583333           0.0138889
       98            0.833333            0.166667            0.583333           0.0138889
       99                0.75                0.25            0.583333           0.0138889
      100            0.666667            0.333333            0.583333           0.0138889
      101            0.583333            0.416667            0.583333           0.0138889
      102                 0.5                 0.5            0.583333          0.00694444
      103            0.916667            0.916667            0.583333           0.0138889
      104            0.916667            0.833333            0.583333           0.0277778
      105            0.916667                0.75            0.583333           0.0277778
      106            0.916667            0.666667            0.583333           0.0277778
      107            0.916667            0.583333            0.583333           0.0277778
      108            0.833333            0.833333            0.583333           0.0138889
      109            0.833333                0.75            0.583333           0.0277778
      110            0.833333            0.666667            0.583333           0.0277778
      111            0.833333            0.583333            0.583333           0.0138889
      112                0.75                0.75            0.583333           0.0138889
      113                0.75            0.666667            0.583333           0.0277778
      114            0.666667            0.666667            0.583333          0.00462963
      115                   0                   0                 0.5          0.00115741
      116            0.916667           0.0833333                 0.5          0.00694444
      117            0.833333            0.166667                 0.5          0.00694444
      118                0.75                0.25                 0.5          0.00694444
      119            0.666667            0.333333                 0.5          0.00694444
      120            0.583333            0.416667                 0.5          0.00694444
      121                 0.5                 0.5                 0.5          0.00347222
      122            0.916667            0.916667                 0.5          0.00694444
      123            0.916667            0.833333                 0.5           0.0138889
      124            0.916667                0.75                 0.5           0.0138889
      125            0.916667            0.666667                 0.5           0.0138889
      126            0.916667            0.583333                 0.5           0.0138889
      127            0.833333            0.833333                 0.5          0.00694444
      128            0.833333                0.75                 0.5           0.0138889
      129            0.833333            0.666667                 0.5           0.0138889
      130            0.833333            0.583333                 0.5          0.00694444
      131                0.75                0.75                 0.5          0.00694444
      132                0.75            0.666667                 0.5           0.0138889
      133            0.666667            0.666667                 0.5          0.00231481
 DONE : INIT K-POINTS Time : 0.0868184 (SEC)





 >>>>>>>>>>>>>>>>>>>>>>>>>>>>>>>>>>>>>>>>>>>>>>>>>>>>>>>>>>>>>>>>>>>>>>
 |                                                                    |
 | Setup plane waves of wave functions:                               |
 | Use the energy cutoff and the lattice vectors to generate the      |
 | dimensions of FFT grid. The number of FFT grid on each processor   |
 | is 'nrxx'. The number of plane wave basis in reciprocal space is   |
 | different for charege/potential and wave functions. We also set    |
 | the 'sticks' for the parallel of FFT. The number of plane wave of  |
 | each k-point is 'npwk[ik]' in each processor                       |
 <<<<<<<<<<<<<<<<<<<<<<<<<<<<<<<<<<<<<<<<<<<<<<<<<<<<<<<<<<<<<<<<<<<<<<





 SETUP PLANE WAVES FOR WAVE FUNCTIONS
     energy cutoff for wavefunc (unit:Ry) = 60
            [fft grid for wave functions] = 30, 30, 50
                    number of plane waves = 4807
                         number of sticks = 241

 PARALLEL PW FOR WAVE FUNCTIONS
     PROC   COLUMNS(POT)             PW
        1            241           4807
 --------------- sum -------------------
        1            241           4807
 DONE : INIT PLANEWAVE Time : 0.163711 (SEC)

 DONE : INIT CHARGE Time : 0.217451 (SEC)

                                     npwx = 2472

 SETUP NONLOCAL PSEUDOPOTENTIALS IN PLANE WAVE BASIS
 Mg non-local projectors:
 projector 1 L=0
 projector 2 L=1
 projector 3 L=3
      TOTAL NUMBER OF NONLOCAL PROJECTORS = 22
 DONE : LOCAL POTENTIAL Time : 0.449583 (SEC)


 Init Non-Local PseudoPotential table : 
 Init Non-Local-Pseudopotential done.
 DONE : NON-LOCAL POTENTIAL Time : 0.503768 (SEC)

                                 init_chg = atomic
 DONE : INIT POTENTIAL Time : 0.631064 (SEC)


 Make real space PAO into reciprocal space.
       max mesh points in Pseudopotential = 421
     dq(describe PAO in reciprocal space) = 0.01
                                    max q = 934

 number of pseudo atomic orbitals for Mg is 4
 the unit of pseudo atomic orbital is 0.999998, renormalize to 1
 the unit of pseudo atomic orbital is 1.02763, renormalize to 1
 the unit of pseudo atomic orbital is 0.99852, renormalize to 1
 the unit of pseudo atomic orbital is 1.06109, renormalize to 1
 DONE : INIT BASIS Time : 0.6623 (SEC)


 -------------------------------------------
 SELF-CONSISTENT
 -------------------------------------------

 PW ALGORITHM --------------- ION=   1  ELEC=   1--------------------------------
 Notice: Threshold on eigenvalues was too large.
 hsover_error=0.04 > DRHO=0.00706499
 Origin diag_ethr = 0.01
 New    diag_ethr = 0.000176625

 Density error is 0.00806942172204
                          Error Threshold = 0.000176624759896

       Energy                       Rydberg                            eV
   E_KohnSham                -5.73798767721                -78.0693274639
     E_Harris                -5.73941057806                -78.0886870231
      E_Fermi                +0.26474800509                +3.60208140335

 PW ALGORITHM --------------- ION=   1  ELEC=   2--------------------------------

 Density error is 0.000663584951772
                          Error Threshold = 0.000201735543051

       Energy                       Rydberg                            eV
   E_KohnSham                 -5.7379887906                -78.0693426122
     E_Harris                -5.73811803767                -78.0711011089
      E_Fermi               +0.262942229377                +3.57751256436

 PW ALGORITHM --------------- ION=   1  ELEC=   3--------------------------------

 Density error is 3.57907894525e-07
                          Error Threshold = 1.65896237943e-05

       Energy                       Rydberg                            eV
   E_KohnSham                -5.73800124976                -78.0695121278
     E_Harris                -5.73800132303                -78.0695131247
      E_Fermi               +0.262558873457                +3.57229673948

 PW ALGORITHM --------------- ION=   1  ELEC=   4--------------------------------

 Density error is 3.73589325494e-08
                          Error Threshold = 8.94769736312e-09

       Energy                       Rydberg                            eV
   E_KohnSham                -5.73800209009                -78.0695235612
     E_Harris                -5.73800209038                -78.0695235651
      E_Fermi               +0.262587446375                +3.57268549397

 PW ALGORITHM --------------- ION=   1  ELEC=   5--------------------------------

 Density error is 3.20252458588e-09
                          Error Threshold = 9.33973313734e-10

       Energy                       Rydberg                            eV
   E_KohnSham                -5.73800208966                -78.0695235553
     E_Harris                -5.73800209088                -78.0695235719
      E_Fermi               +0.262582755516                +3.57262167156

 PW ALGORITHM --------------- ION=   1  ELEC=   6--------------------------------

 Density error is 8.71493300705e-13
                          Error Threshold = 8.00631146469e-11

       Energy                       Rydberg                            eV
   E_KohnSham                -5.73800208977                -78.0695235568
     E_Harris                -5.73800208977                -78.0695235568
       E_band               +0.258741152048                +3.52035397494
   E_one_elec                +2.57732310346                +35.0662797941
    E_Hartree             +0.00971986715244               +0.132245577076
         E_xc                -4.02073930596                -54.7049647336
      E_Ewald                -4.30388786099                -58.5573984625
      E_demet            -0.000417893438207             -0.00568573191642
      E_descf                            +0                            +0
     E_efield                            +0                            +0
        E_exx                            +0                            +0
      E_Fermi                +0.26258360081                +3.57263317237

 charge density convergence is achieved
 final etot is -78.0695235568 eV

 STATE ENERGY(eV) AND OCCUPATIONS    NSPIN == 1
 1/133 kpoint (Cartesian) = 0 0 0 (2431 pws)
       1       -3.32434     0.00115741
       2        1.90170     0.00115741
       3        2.31614     0.00115741
       4        14.6406        0.00000
       5        14.6406        0.00000
       6        14.7126        0.00000
       7        14.7126        0.00000
       8        15.4253        0.00000
       9        16.9888        0.00000
      10        17.7531        0.00000
      11        18.8301        0.00000
      12        18.8301        0.00000
      13        18.9852        0.00000
      14        20.7487        0.00000
      15        20.7487        0.00000

 2/133 kpoint (Cartesian) = 0.916667 0.625463 0.00000 (2443 pws)
       1       -3.18651     0.00694444
       2        2.02775     0.00694444
       3        2.44984     0.00694444
       4        12.3394        0.00000
       5        13.4167        0.00000
       6        14.2065        0.00000
       7        16.1331        0.00000
       8        16.2545        0.00000
       9        17.0077        0.00000
      10        17.6212        0.00000
      11        17.8745        0.00000
      12        18.0626        0.00000
      13        18.1463        0.00000
      14        18.1923        0.00000
      15        21.7563        0.00000

 3/133 kpoint (Cartesian) = 0.833333 0.673575 0.00000 (2433 pws)
       1       -2.77419     0.00694444
       2        2.40601     0.00694444
       3        2.84598     0.00694444
       4        9.81338        0.00000
       5        12.3856        0.00000
       6        12.9922        0.00000
       7        14.5168        0.00000
       8        15.2560        0.00000
       9        16.9851        0.00000
      10        16.9857        0.00000
      11        17.1885        0.00000
      12        18.1391        0.00000
      13        18.1993        0.00000
      14        18.8963        0.00000
      15        23.5296        0.00000

 4/133 kpoint (Cartesian) = 0.750000 0.721688 0.00000 (2439 pws)
       1       -2.09091     0.00694444
       2        3.03676     0.00694444
       3        3.48183     0.00624250
       4        7.47411        0.00000
       5        11.5852        0.00000
       6        11.6651        0.00000
       7        12.1531        0.00000
       8        13.7058        0.00000
       9        16.0901        0.00000
      10        16.4328        0.00000
      11        17.1803        0.00000
      12        17.7017        0.00000
      13        19.3602        0.00000
      14        20.0484        0.00000
      15        25.4515        0.00000

 5/133 kpoint (Cartesian) = 0.666667 0.769800 0.00000 (2431 pws)
       1       -1.14257     0.00694444
       2        3.92016    3.65701e-09
       3        4.17437        0.00000
       4        5.53442        0.00000
       5        10.0112        0.00000
       6        10.1576        0.00000
       7        11.0148        0.00000
       8        12.6329        0.00000
       9        15.4381        0.00000
      10        15.9605        0.00000
      11        16.9821        0.00000
      12        17.0968        0.00000
      13        20.1104        0.00000
      14        22.2437        0.00000
      15        26.9959        0.00000

 6/133 kpoint (Cartesian) = 0.583333 0.817913 0.00000 (2423 pws)
       1      0.0619379     0.00694444
       2        3.14650     0.00694444
       3        5.05430        0.00000
       4        5.76444        0.00000
       5        8.11674        0.00000
       6        8.58015        0.00000
       7        10.6732        0.00000
       8        12.0556        0.00000
       9        15.0437        0.00000
      10        15.6725        0.00000
      11        16.7297        0.00000
      12        16.7770        0.00000
      13        24.6150        0.00000
      14        27.5676        0.00000
      15        27.6803        0.00000

 7/133 kpoint (Cartesian) = 0.500000 0.866025 0.00000 (2424 pws)
       1        1.49791     0.00347222
       2        1.51764     0.00347222
       3        6.28105        0.00000
       4        6.63586        0.00000
       5        6.85397        0.00000
       6        7.27987        0.00000
       7        10.5595        0.00000
       8        11.8739        0.00000
       9        14.9118        0.00000
      10        15.5762        0.00000
      11        16.6073        0.00000
      12        16.6964        0.00000
      13        26.4672        0.00000
      14        27.6147        0.00000
      15        27.6462        0.00000

 8/133 kpoint (Cartesian) = 0.916667 1.58771 0.00000 (2439 pws)
       1       -2.91144     0.00694444
       2        2.27990     0.00694444
       3        2.71489     0.00694444
       4        11.0093        0.00000
       5        11.2922        0.00000
       6        15.2492        0.00000
       7        15.3069        0.00000
       8        15.5558        0.00000
       9        16.1217        0.00000
      10        16.2983        0.00000
      11        16.6499        0.00000
      12        17.9604        0.00000
      13        18.0834        0.00000
      14        20.0673        0.00000
      15        21.1846        0.00000

 9/133 kpoint (Cartesian) = 0.916667 1.49149 0.00000 (2443 pws)
       1       -2.36363      0.0138889
       2        2.78442      0.0138889
       3        3.23316      0.0138889
       4        8.69142        0.00000
       5        10.1715        0.00000
       6        13.3660        0.00000
       7        13.6467        0.00000
       8        15.0220        0.00000
       9        15.0950        0.00000
      10        15.3432        0.00000
      11        17.3830        0.00000
      12        18.3861        0.00000
      13        18.4951        0.00000
      14        19.8673        0.00000
      15        20.2981        0.00000

 10/133 kpoint (Cartesian) = 0.916667 1.39526 0.00000 (2430 pws)
       1       -1.54781      0.0138889
       2        3.54157     0.00928783
       3        3.95183    6.96093e-10
       4        6.50122        0.00000
       5        9.35999        0.00000
       6        11.1380        0.00000
       7        11.8443        0.00000
       8        14.2164        0.00000
       9        14.3209        0.00000
      10        14.7757        0.00000
      11        18.2296        0.00000
      12        18.9026        0.00000
      13        19.3765        0.00000
      14        19.4842        0.00000
      15        20.7243        0.00000

 11/133 kpoint (Cartesian) = 0.916667 1.29904 0.00000 (2418 pws)
       1      -0.471241      0.0138889
       2        4.01910    2.48677e-12
       3        4.55091        0.00000
       4        5.40535        0.00000
       5        8.64542        0.00000
       6        9.12434        0.00000
       7        10.2707        0.00000
       8        13.6911        0.00000
       9        13.8052        0.00000
      10        14.3652        0.00000
      11        18.2890        0.00000
      12        18.5583        0.00000
      13        20.0932        0.00000
      14        20.6572        0.00000
      15        22.3516        0.00000

 12/133 kpoint (Cartesian) = 0.916667 1.20281 0.00000 (2421 pws)
       1       0.854874      0.0138889
       2        2.40731      0.0138889
       3        5.80348        0.00000
       4        6.40247        0.00000
       5        7.36581        0.00000
       6        7.66401        0.00000
       7        9.40951        0.00000
       8        13.4297        0.00000
       9        13.5474        0.00000
      10        14.1539        0.00000
      11        18.2187        0.00000
      12        18.3227        0.00000
      13        21.1557        0.00000
      14        21.8070        0.00000
      15        23.2733        0.00000

 13/133 kpoint (Cartesian) = 0.833333 1.44338 0.00000 (2439 pws)
       1       -1.68328     0.00694444
       2        3.41537     0.00685009
       3        3.84945    3.50597e-07
       4        7.63052        0.00000
       5        8.04716        0.00000
       6        12.2209        0.00000
       7        12.8450        0.00000
       8        12.9221        0.00000
       9        13.6305        0.00000
      10        16.4934        0.00000
      11        17.1394        0.00000
      12        19.0036        0.00000
      13        19.0301        0.00000
      14        21.5312        0.00000
      15        22.3216        0.00000

 14/133 kpoint (Cartesian) = 0.833333 1.34715 0.00000 (2425 pws)
       1      -0.739125      0.0138889
       2        4.29879        0.00000
       3        4.51536        0.00000
       4        5.83884        0.00000
       5        7.27741        0.00000
       6        10.3530        0.00000
       7        11.1964        0.00000
       8        12.0042        0.00000
       9        12.8478        0.00000
      10        16.2701        0.00000
      11        18.8484        0.00000
      12        19.7523        0.00000
      13        19.7805        0.00000
      14        21.3647        0.00000
      15        21.7801        0.00000

 15/133 kpoint (Cartesian) = 0.833333 1.25093 0.00000 (2420 pws)
       1       0.459785      0.0138889
       2        3.52663      0.0102905
       3        5.43220        0.00000
       4        5.83316        0.00000
       5        7.00615        0.00000
       6        8.48812        0.00000
       7        9.57592        0.00000
       8        11.5878        0.00000
       9        12.4724        0.00000
      10        15.9588        0.00000
      11        19.9708        0.00000
      12        20.4917        0.00000
      13        21.0894        0.00000
      14        21.2256        0.00000
      15        22.4402        0.00000

 16/133 kpoint (Cartesian) = 0.833333 1.15470 0.00000 (2420 pws)
       1        1.88417     0.00694444
       2        1.91230     0.00694444
       3        6.18488        0.00000
       4        6.65048        0.00000
       5        7.02065        0.00000
       6        7.19878        0.00000
       7        8.65224        0.00000
       8        11.4536        0.00000
       9        12.3503        0.00000
      10        15.8497        0.00000
      11        20.1107        0.00000
      12        20.6344        0.00000
      13        21.8701        0.00000
      14        22.2395        0.00000
      15        23.1513        0.00000

 17/133 kpoint (Cartesian) = 0.750000 1.29904 0.00000 (2429 pws)
       1       0.327564     0.00694444
       2        4.64274        0.00000
       3        4.96045        0.00000
       4        5.30714        0.00000
       5        6.50349        0.00000
       6        9.61608        0.00000
       7        10.2115        0.00000
       8        10.4384        0.00000
       9        11.3123        0.00000
      10        18.2731        0.00000
      11        18.8472        0.00000
      12        20.6137        0.00000
      13        20.7980        0.00000
      14        22.8938        0.00000
      15        23.8284        0.00000

 18/133 kpoint (Cartesian) = 0.750000 1.20281 0.00000 (2418 pws)
       1        1.64035      0.0138889
       2        3.17511      0.0138889
       3        4.64855        0.00000
       4        6.55424        0.00000
       5        7.32456        0.00000
       6        8.09989        0.00000
       7        9.22975        0.00000
       8        9.71607        0.00000
       9        10.7737        0.00000
      10        18.3497        0.00000
      11        20.8545        0.00000
      12        21.6421        0.00000
      13        21.7107        0.00000
      14        22.7487        0.00000
      15        22.9993        0.00000

 19/133 kpoint (Cartesian) = 0.666667 1.15470 0.00000 (2424 pws)
       1        3.02773     0.00231481
       2        3.06614     0.00231481
       3        3.06614     0.00231481
       4        7.76059        0.00000
       5        7.76059        0.00000
       6        7.90447        0.00000
       7        8.46785        0.00000
       8        9.51362        0.00000
       9        9.51362        0.00000
      10        20.6407        0.00000
      11        20.9096        0.00000
      12        20.9096        0.00000
      13        22.7773        0.00000
      14        22.7773        0.00000
      15        22.9377        0.00000

 20/133 kpoint (Cartesian) = 0.00000 0.00000 0.560508 (2425 pws)
       1       -3.28566     0.00231481
       2        1.23591     0.00231481
       3        3.04846     0.00231481
       4        14.6716        0.00000
       5        14.6716        0.00000
       6        14.7393        0.00000
       7        14.7393        0.00000
       8        14.9377        0.00000
       9        17.0165        0.00000
      10        18.4348        0.00000
      11        18.4348        0.00000
      12        18.6943        0.00000
      13        18.6943        0.00000
      14        21.1053        0.00000
      15        21.1053        0.00000

 21/133 kpoint (Cartesian) = 0.916667 0.625463 0.560508 (2442 pws)
       1       -3.14788      0.0138889
       2        1.36630      0.0138889
       3        3.17757      0.0138889
[...]
      14        21.1532        0.00000
      15        23.4696        0.00000

 108/133 kpoint (Cartesian) = 0.833333 1.44338 0.356687 (2432 pws)
       1      -0.737290      0.0138889
       2       0.161188      0.0138889
       3        8.18892        0.00000
       4        8.39755        0.00000
       5        8.83536        0.00000
       6        9.51092        0.00000
       7        10.2521        0.00000
       8        11.8114        0.00000
       9        17.2436        0.00000
      10        17.4804        0.00000
      11        17.9314        0.00000
      12        17.9355        0.00000
      13        18.6738        0.00000
      14        19.2317        0.00000
      15        20.6486        0.00000

 109/133 kpoint (Cartesian) = 0.833333 1.34715 0.356687 (2430 pws)
       1       0.196297      0.0277778
       2        1.08308      0.0277778
       3        6.40595        0.00000
       4        7.14187        0.00000
       5        8.06802        0.00000
       6        8.81653        0.00000
       7        10.2784        0.00000
       8        12.5137        0.00000
       9        15.6929        0.00000
      10        16.9718        0.00000
      11        17.3370        0.00000
      12        18.1090        0.00000
      13        18.8425        0.00000
      14        19.5057        0.00000
      15        20.6206        0.00000

 110/133 kpoint (Cartesian) = 0.833333 1.25093 0.356687 (2428 pws)
       1        1.37720      0.0277778
       2        2.23575      0.0277778
       3        4.56505        0.00000
       4        5.37818        0.00000
       5        7.68527        0.00000
       6        8.49542        0.00000
       7        11.1961        0.00000
       8        13.4950        0.00000
       9        14.0465        0.00000
      10        16.0204        0.00000
      11        17.0451        0.00000
      12        17.4234        0.00000
      13        18.1275        0.00000
      14        19.4647        0.00000
      15        22.6061        0.00000

 111/133 kpoint (Cartesian) = 0.833333 1.15470 0.356687 (2410 pws)
       1        2.71063      0.0138889
       2        2.74289      0.0138889
       3        3.81588    4.40197e-06
       4        3.83840    1.31409e-06
       5        7.55956        0.00000
       6        8.38104        0.00000
       7        12.3721        0.00000
       8        12.5679        0.00000
       9        14.7274        0.00000
      10        14.8168        0.00000
      11        16.9550        0.00000
      12        17.1608        0.00000
      13        17.9396        0.00000
      14        19.3808        0.00000
      15        24.7191        0.00000

 112/133 kpoint (Cartesian) = 0.750000 1.29904 0.356687 (2439 pws)
       1        1.24824      0.0138889
       2        2.11551      0.0138889
       3        5.75100        0.00000
       4        5.90039        0.00000
       5        6.92735        0.00000
       6        7.10138        0.00000
       7        11.0674        0.00000
       8        13.4308        0.00000
       9        15.2969        0.00000
      10        15.4753        0.00000
      11        17.7235        0.00000
      12        17.8893        0.00000
      13        19.4994        0.00000
      14        19.9278        0.00000
      15        20.8986        0.00000

 113/133 kpoint (Cartesian) = 0.750000 1.20281 0.356687 (2418 pws)
       1        2.52634      0.0277778
       2        3.28515      0.0277770
       3        4.24098        0.00000
       4        4.89956        0.00000
       5        5.98460        0.00000
       6        6.69421        0.00000
       7        12.2423        0.00000
       8        13.6547        0.00000
       9        14.5815        0.00000
      10        15.2498        0.00000
      11        16.2975        0.00000
      12        17.6522        0.00000
      13        19.5681        0.00000
      14        20.2497        0.00000
      15        22.3189        0.00000

 114/133 kpoint (Cartesian) = 0.666667 1.15470 0.356687 (2406 pws)
       1        3.74853    3.12106e-05
       2        3.74853    3.12100e-05
       3        3.91881    2.68299e-09
       4        4.77427        0.00000
       5        5.36220        0.00000
       6        5.36220        0.00000
       7        13.3977        0.00000
       8        13.6327        0.00000
       9        13.6327        0.00000
      10        15.9679        0.00000
      11        16.2191        0.00000
      12        16.2191        0.00000
      13        21.6349        0.00000
      14        22.0505        0.00000
      15        22.0505        0.00000

 115/133 kpoint (Cartesian) = 0.00000 0.00000 0.305732 (2472 pws)
       1       -1.94139     0.00115741
       2       -1.94139     0.00115741
       3        8.54540        0.00000
       4        8.54540        0.00000
       5        15.3926        0.00000
       6        15.3926        0.00000
       7        15.3926        0.00000
       8        15.3926        0.00000
       9        16.4246        0.00000
      10        16.4246        0.00000
      11        16.4246        0.00000
      12        16.4246        0.00000
      13        24.2179        0.00000
      14        24.2179        0.00000
      15        24.2179        0.00000

 116/133 kpoint (Cartesian) = 0.916667 0.625463 0.305732 (2444 pws)
       1       -1.80551     0.00694444
       2       -1.80551     0.00694444
       3        8.65572        0.00000
       4        8.65572        0.00000
       5        13.4957        0.00000
       6        13.4957        0.00000
       7        14.5384        0.00000
       8        14.5384        0.00000
       9        15.9803        0.00000
      10        15.9803        0.00000
      11        17.5115        0.00000
      12        17.5115        0.00000
      13        19.1213        0.00000
      14        19.1213        0.00000
      15        23.7752        0.00000

 117/133 kpoint (Cartesian) = 0.833333 0.673575 0.305732 (2450 pws)
       1       -1.39905     0.00694444
       2       -1.39905     0.00694444
       3        8.94889        0.00000
       4        8.94889        0.00000
       5        11.0918        0.00000
       6        11.0918        0.00000
       7        13.5393        0.00000
       8        13.5393        0.00000
       9        14.9859        0.00000
      10        14.9859        0.00000
      11        19.2005        0.00000
      12        19.2005        0.00000
      13        20.5575        0.00000
      14        22.9887        0.00000
      15        22.9887        0.00000

 118/133 kpoint (Cartesian) = 0.750000 0.721688 0.305732 (2436 pws)
       1      -0.725734     0.00694444
       2      -0.725733     0.00694444
       3        8.44573        0.00000
       4        8.44573        0.00000
       5        9.84400        0.00000
       6        9.84400        0.00000
       7        12.7438        0.00000
       8        12.7438        0.00000
       9        14.1168        0.00000
      10        14.1168        0.00000
      11        18.8674        0.00000
      12        21.0512        0.00000
      13        21.0512        0.00000
      14        22.3747        0.00000
      15        22.3747        0.00000

 119/133 kpoint (Cartesian) = 0.666667 0.769800 0.305732 (2428 pws)
       1       0.207591     0.00694444
       2       0.207592     0.00694444
       3        6.45223        0.00000
       4        6.45223        0.00000
       5        10.4681        0.00000
       6        10.4681        0.00000
       7        12.1726        0.00000
       8        12.1726        0.00000
       9        13.4853        0.00000
      10        13.4853        0.00000
      11        17.0364        0.00000
      12        17.0364        0.00000
      13        21.5400        0.00000
      14        21.5400        0.00000
      15        23.5225        0.00000

 120/133 kpoint (Cartesian) = 0.583333 0.817913 0.305732 (2428 pws)
       1        1.38546     0.00694444
       2        1.38546     0.00694444
       3        4.57563        0.00000
       4        4.57563        0.00000
       5        11.2521        0.00000
       6        11.2521        0.00000
       7        11.8292        0.00000
       8        11.8292        0.00000
       9        13.1536        0.00000
      10        13.1536        0.00000
      11        15.5161        0.00000
      12        15.5161        0.00000
      13        21.2627        0.00000
      14        21.2627        0.00000
      15        25.7522        0.00000

 121/133 kpoint (Cartesian) = 0.500000 0.866025 0.305732 (2424 pws)
       1        2.53089     0.00347222
       2        2.53089     0.00347222
       3        3.19441     0.00347222
       4        3.19441     0.00347222
       5        11.6589        0.00000
       6        11.6589        0.00000
       7        11.7147        0.00000
       8        11.7147        0.00000
       9        13.1248        0.00000
      10        13.1248        0.00000
      11        14.7815        0.00000
      12        14.7815        0.00000
      13        21.1589        0.00000
      14        21.1589        0.00000
      15        27.2299        0.00000

 122/133 kpoint (Cartesian) = 0.916667 1.58771 0.305732 (2446 pws)
       1       -1.53434     0.00694444
       2       -1.53434     0.00694444
       3        8.86412        0.00000
       4        8.86412        0.00000
       5        11.9957        0.00000
       6        11.9957        0.00000
       7        12.9432        0.00000
       8        12.9432        0.00000
       9        16.9652        0.00000
      10        16.9652        0.00000
      11        17.1020        0.00000
      12        17.1020        0.00000
      13        21.2150        0.00000
      14        21.2150        0.00000
      15        21.6668        0.00000

 123/133 kpoint (Cartesian) = 0.916667 1.49149 0.305732 (2446 pws)
       1      -0.994432      0.0138889
       2      -0.994431      0.0138889
       3        9.10545        0.00000
       4        9.10545        0.00000
       5        10.0285        0.00000
       6        10.0285        0.00000
       7        11.8097        0.00000
       8        11.8097        0.00000
       9        16.1222        0.00000
      10        16.1222        0.00000
      11        18.7836        0.00000
      12        18.7836        0.00000
      13        19.9607        0.00000
      14        19.9607        0.00000
      15        21.4751        0.00000

 124/133 kpoint (Cartesian) = 0.916667 1.39526 0.305732 (2436 pws)
       1      -0.190947      0.0138889
       2      -0.190946      0.0138889
       3        7.54122        0.00000
       4        7.54122        0.00000
       5        9.89018        0.00000
       6        9.89018        0.00000
       7        11.2753        0.00000
       8        11.2753        0.00000
       9        15.3378        0.00000
      10        15.3378        0.00000
      11        18.0316        0.00000
      12        18.0316        0.00000
      13        20.3144        0.00000
      14        20.3144        0.00000
      15        21.4458        0.00000

 125/133 kpoint (Cartesian) = 0.916667 1.29904 0.305732 (2428 pws)
       1       0.866424      0.0138889
       2       0.866424      0.0138889
       3        5.57624        0.00000
       4        5.57624        0.00000
       5        9.95700        0.00000
       6        9.95700        0.00000
       7        11.6042        0.00000
       8        11.6042        0.00000
       9        14.6297        0.00000
      10        14.6297        0.00000
      11        16.4757        0.00000
      12        16.4757        0.00000
      13        20.1583        0.00000
      14        20.1583        0.00000
      15        23.3015        0.00000

 126/133 kpoint (Cartesian) = 0.916667 1.20281 0.305732 (2418 pws)
       1        2.13962      0.0138889
       2        2.13962      0.0138889
       3        3.83608    1.49467e-06
       4        3.83608    1.49462e-06
       5        9.83477        0.00000
       6        9.83477        0.00000
       7        12.5706        0.00000
       8        12.5706        0.00000
       9        13.7163        0.00000
      10        13.7163        0.00000
      11        15.6078        0.00000
      12        15.6078        0.00000
      13        19.9593        0.00000
      14        19.9593        0.00000
      15        24.4739        0.00000

 127/133 kpoint (Cartesian) = 0.833333 1.44338 0.305732 (2434 pws)
       1      -0.324281     0.00694444
       2      -0.324281     0.00694444
       3        8.60219        0.00000
       4        8.60219        0.00000
       5        8.99418        0.00000
       6        8.99418        0.00000
       7        10.8097        0.00000
       8        10.8097        0.00000
       9        17.7717        0.00000
      10        17.7717        0.00000
      11        17.9447        0.00000
      12        17.9447        0.00000
      13        19.0197        0.00000
      14        19.0197        0.00000
      15        20.1060        0.00000

 128/133 kpoint (Cartesian) = 0.833333 1.34715 0.305732 (2432 pws)
       1       0.604192      0.0138889
       2       0.604192      0.0138889
       3        6.76811        0.00000
       4        6.76811        0.00000
       5        8.42240        0.00000
       6        8.42240        0.00000
       7        11.3312        0.00000
       8        11.3312        0.00000
       9        16.6083        0.00000
      10        16.6083        0.00000
      11        17.9550        0.00000
      12        17.9550        0.00000
      13        18.6683        0.00000
      14        18.6683        0.00000
      15        20.7451        0.00000

 129/133 kpoint (Cartesian) = 0.833333 1.25093 0.305732 (2426 pws)
       1        1.77433      0.0138889
       2        1.77433      0.0138889
       3        4.93849        0.00000
       4        4.93849        0.00000
       5        8.06330        0.00000
       6        8.06330        0.00000
       7        12.3354        0.00000
       8        12.3354        0.00000
       9        15.0925        0.00000
      10        15.0925        0.00000
      11        17.5033        0.00000
      12        17.5033        0.00000
      13        18.3560        0.00000
      14        18.3560        0.00000
      15        22.9342        0.00000

 130/133 kpoint (Cartesian) = 0.833333 1.15470 0.305732 (2424 pws)
       1        2.90254     0.00694444
       2        2.90254     0.00694444
       3        3.58351     0.00305066
       4        3.58351     0.00305065
       5        7.94119        0.00000
       6        7.94119        0.00000
       7        13.4545        0.00000
       8        13.4545        0.00000
       9        13.7836        0.00000
      10        13.7836        0.00000
      11        17.3623        0.00000
      12        17.3623        0.00000
      13        18.2362        0.00000
      14        18.2362        0.00000
      15        24.9154        0.00000

 131/133 kpoint (Cartesian) = 0.750000 1.29904 0.305732 (2436 pws)
       1        1.64812     0.00694444
       2        1.64812     0.00694444
       3        5.96105        0.00000
       4        5.96105        0.00000
       5        6.81534        0.00000
       6        6.81534        0.00000
       7        12.2293        0.00000
       8        12.2293        0.00000
       9        16.1868        0.00000
      10        16.1868        0.00000
      11        16.9752        0.00000
      12        16.9752        0.00000
      13        19.7578        0.00000
      14        19.7578        0.00000
      15        20.6173        0.00000

 132/133 kpoint (Cartesian) = 0.750000 1.20281 0.305732 (2414 pws)
       1        2.89581      0.0138889
       2        2.89581      0.0138889
       3        4.54089        0.00000
       4        4.54089        0.00000
       5        6.27709        0.00000
       6        6.27709        0.00000
       7        13.3941        0.00000
       8        13.3941        0.00000
       9        14.8606        0.00000
      10        14.8606        0.00000
      11        16.5115        0.00000
      12        16.5115        0.00000
      13        19.8687        0.00000
      14        19.8687        0.00000
      15        22.6214        0.00000

 133/133 kpoint (Cartesian) = 0.666667 1.15470 0.305732 (2400 pws)
       1        3.84471    1.53372e-07
       2        3.84472    1.53367e-07
       3        4.31093        0.00000
       4        4.31093        0.00000
       5        5.19869        0.00000
       6        5.19869        0.00000
       7        14.3629        0.00000
       8        14.3629        0.00000
       9        14.6492        0.00000
      10        14.6492        0.00000
      11        15.4403        0.00000
      12        15.4403        0.00000
      13        21.9833        0.00000
      14        23.6463        0.00000
      15        23.6463        0.00000



 --------------------------------------------
 !FINAL_ETOT_IS -78.06952355680474 eV
 --------------------------------------------






  |CLASS_NAME---------|NAME---------------|TIME(Sec)-----|CALLS----|AVG------|PER%-------
                                      total         57.379        19       3.0   1.0e+02%
                 Driver         driver_line         57.372         1       57.    1.e+02%
              Potential            init_pot        0.12726         1      0.13      0.22%
              Potential            v_of_rho        0.13199         7     0.019      0.23%
          XC_Functional                v_xc        0.12280         7     0.018      0.21%
          ESolver_KS_PW                 Run         56.707         1       57.       99.%
              HSolverPW               solve         56.547         7       8.1       99.%
            pp_cell_vnl              getvnl         1.4858       931    0.0016       2.6%
                 WF_igk              get_sk        0.12590      2128   5.9e-05      0.22%
              WF_atomic          atomic_wfc        0.30828       133    0.0023      0.54%
        DiagoIterAssist      diagH_subspace         10.282       798     0.013       18.%
             OperatorPW                hPsi         47.330     48503   0.00098       82.%
               Operator          EkineticPW        0.33241     48503   6.9e-06      0.58%
               Operator              VeffPW         38.923     48503   0.00080       68.%
             PW_Basis_K          recip2real         17.533     64043   0.00027       31.%
             PW_Basis_K    gathers_scatterp         3.5053     64043   5.5e-05       6.1%
             PW_Basis_K          real2recip         14.707     61936   0.00024       26.%
             PW_Basis_K    gatherp_scatters        0.91566     61936   1.5e-05       1.6%
               Operator          NonlocalPW         7.8701     48503   0.00016       14.%
               Nonlocal     add_nonlocal_pp         3.0313     48503   6.2e-05       5.3%
        DiagoIterAssist        diagH_LAPACK        0.15359       798   0.00019      0.27%
                DiagoCG           diag_once         43.661       931     0.047       76.%
            ElecStatePW            psiToRho        0.74796         7      0.11       1.3%
 ----------------------------------------------------------------------------------------

 CLASS_NAME---------|NAME---------------|MEMORY(MB)--------
                                         87.14
             wavefunc                 psi          75.25
         Charge_Pulay                Rrho          2.747
         Charge_Pulay               dRrho          2.403
         Charge_Pulay                drho          2.403
 ----------------------------------------------------------

 Start  Time  : Mon Sep  5 19:54:49 2022
 Finish Time  : Mon Sep  5 19:55:46 2022
 Total  Time  : 0 h 0 mins 57 secs 
