                                                                                     
                             WELCOME TO ABACUS                                       
                                                                                     
               'Atomic-orbital Based Ab-initio Computation at UStc'                  
                                                                                     
                     Website: http://abacus.ustc.edu.cn/                             
                                                                                     
    Version: Parallel, in development
    Processor Number is 1
    Start Time is Fri Sep 10 11:31:50 2021
                                                                                     
 ------------------------------------------------------------------------------------

 READING GENERAL INFORMATION
                           global_out_dir = OUT.blpstest/
                           global_in_card = INPUT
                               pseudo_dir = ./
                              orbital_dir = ./
                              pseudo_type = blps
                                    DRANK = 1
                                    DSIZE = 1
                                   DCOLOR = 1
                                    GRANK = 1
                                    GSIZE = 1




 >>>>>>>>>>>>>>>>>>>>>>>>>>>>>>>>>>>>>>>>>>>>>>>>>>>>>>>>>>>>>>>>>>>>>>
 |                                                                    |
 | Reading atom information in unitcell:                              |
 | From the input file and the structure file we know the number of   |
 | different elments in this unitcell, then we list the detail        |
 | information for each element, especially the zeta and polar atomic |
 | orbital number for each element. The total atom number is counted. |
 | We calculate the nearest atom distance for each atom and show the  |
 | Cartesian and Direct coordinates for each atom. We list the file   |
 | address for atomic orbitals. The volume and the lattice vectors    |
 | in real and reciprocal space is also shown.                        |
 |                                                                    |
 <<<<<<<<<<<<<<<<<<<<<<<<<<<<<<<<<<<<<<<<<<<<<<<<<<<<<<<<<<<<<<<<<<<<<<




 READING UNITCELL INFORMATION
                                    ntype = 1
                 atom label for species 1 = Si
                  lattice constant (Bohr) = 10.6295
              lattice constant (Angstrom) = 5.62488

 READING ATOM TYPE 1
                               atom label = Si
                      L=0, number of zeta = 1
                      L=1, number of zeta = 1
                      L=2, number of zeta = 1
             number of atom for this type = 2
                      start magnetization = FALSE
                      start magnetization = FALSE

                        TOTAL ATOM NUMBER = 2

 DIRECT COORDINATES
         atom                   x                   y                   z                 mag                  vx                  vy                  vz
     taud_Si1                   0                   0                   0                   0                   0                   0                   0
     taud_Si2                0.25                0.25                0.25                   0                   0                   0                   0


                          Volume (Bohr^3) = 300.246
                             Volume (A^3) = 44.4918

 Lattice vectors: (Cartesian coordinate: in unit of a_0)
                   +0                +0.5                +0.5
                 +0.5                  +0                +0.5
                 +0.5                +0.5                  +0
 Reciprocal vectors: (Cartesian coordinate: in unit of 2 pi/a_0)
                   -1                  +1                  +1
                   +1                  -1                  +1
                   +1                  +1                  -1




 >>>>>>>>>>>>>>>>>>>>>>>>>>>>>>>>>>>>>>>>>>>>>>>>>>>>>>>>>>>>>>>>>>>>>>
 |                                                                    |
 | Reading pseudopotentials files:                                    |
 | The pseudopotential file is in UPF format. The 'NC' indicates that |
 | the type of pseudopotential is 'norm conserving'. Functional of    |
 | exchange and correlation is decided by 4 given parameters in UPF   |
 | file.  We also read in the 'core correction' if there exists.      |
 | Also we can read the valence electrons number and the maximal      |
 | angular momentum used in this pseudopotential. We also read in the |
 | trail wave function, trail atomic density and local-pseudopotential|
 | on logrithmic grid. The non-local pseudopotential projector is also|
 | read in if there is any.                                           |
 |                                                                    |
 <<<<<<<<<<<<<<<<<<<<<<<<<<<<<<<<<<<<<<<<<<<<<<<<<<<<<<<<<<<<<<<<<<<<<<




                PAO radial cut off (Bohr) = 16

 Read in pseudopotential file is si.lda.lps
                     pseudopotential type = 
                            functional Ex = LDA
                            functional Ec = LDA
                          functional GCEx = NOGX
                          functional GCEc = NOGC
                 nonlocal core correction = 0
                        valence electrons = 4
                                     lmax = 0
                           number of zeta = 0
                     number of projectors = 0
     initial pseudo atomic orbital number = 0
                                   NLOCAL = 18

 SETUP THE ELECTRONS NUMBER
            electron number of element Si = 4
      total electron number of element Si = 8
                           occupied bands = 4
                                   NBANDS = 12
 DONE : SETUP UNITCELL Time : 0.014344 (SEC)





 >>>>>>>>>>>>>>>>>>>>>>>>>>>>>>>>>>>>>>>>>>>>>>>>>>>>>>>>>>>>>>>>>>>>>>
 |                                                                    |
 | Doing symmetry analysis:                                           |
 | We calculate the norm of 3 vectors and the angles between them,    |
 | the type of Bravais lattice is given. We can judge if the unticell |
 | is a primitive cell. Finally we give the point group operation for |
 | this unitcell. We we use the point group operations to do symmetry |
 | analysis on given k-point mesh and the charge density.             |
 |                                                                    |
 <<<<<<<<<<<<<<<<<<<<<<<<<<<<<<<<<<<<<<<<<<<<<<<<<<<<<<<<<<<<<<<<<<<<<<




 LATTICE VECTORS: (CARTESIAN COORDINATE: IN UNIT OF A0)
                   +0                +0.5                +0.5
                 +0.5                  +0                +0.5
                 +0.5                +0.5                  +0
                       right hand lattice = 1
                                   NORM_A = 0.707107
                                   NORM_B = 0.707107
                                   NORM_C = 0.707107
                           ALPHA (DEGREE) = 60
                           BETA  (DEGREE) = 60
                           GAMMA (DEGREE) = 60
                             BRAVAIS TYPE = 3
                     BRAVAIS LATTICE NAME = 03. Cubic F (face-centered)
 STANDARD LATTICE VECTORS: (CARTESIAN COORDINATE: IN UNIT OF A0)
                   +0                +0.5                +0.5
                 +0.5                  +0                +0.5
                 +0.5                +0.5                  +0
                                    IBRAV = 3
                                  BRAVAIS = FACE CENTERED CUBIC
                       LATTICE CONSTANT A = 4.12311
                                    ibrav = 3
                        ROTATION MATRICES = 48
              PURE POINT GROUP OPERATIONS = 24
                   SPACE GROUP OPERATIONS = 48
                                       C2 = 3
                                       C3 = 8
                                       C4 = 0
                                       C6 = 0
                                       S1 = 6
                                       S3 = 0
                                       S4 = 6
                                       S6 = 0
                              POINT GROUP = T_d
 DONE : SYMMETRY Time : 0.070632 (SEC)





 >>>>>>>>>>>>>>>>>>>>>>>>>>>>>>>>>>>>>>>>>>>>>>>>>>>>>>>>>>>>>>>>>>>>>>
 |                                                                    |
 | Setup K-points                                                     |
 | We setup the k-points according to input parameters.               |
 | The reduced k-points are set according to symmetry operations.     |
 | We treat the spin as another set of k-points.                      |
 |                                                                    |
 <<<<<<<<<<<<<<<<<<<<<<<<<<<<<<<<<<<<<<<<<<<<<<<<<<<<<<<<<<<<<<<<<<<<<<





 SETUP K-POINTS
                                    nspin = 1
                   Input type of k points = Monkhorst-Pack(Gamma)
                                   nkstot = 1728
                               nkstot_ibz = 72
      IBZ             DirectX             DirectY             DirectZ              Weight    ibz2bz
        1                   0                   0                   0         0.000578704         0
        2            0.916667            0.916667            0.916667          0.00462963         1
        3            0.833333            0.833333            0.833333          0.00462963         2
        4                0.75                0.75                0.75          0.00462963         3
        5            0.666667            0.666667            0.666667          0.00462963         4
        6            0.583333            0.583333            0.583333          0.00462963         5
        7                 0.5                 0.5                 0.5          0.00231481         6
        8                   0            0.916667            0.916667          0.00347222        13
        9            0.916667            0.833333            0.833333           0.0138889        14
       10            0.833333                0.75                0.75           0.0138889        15
       11            0.916667            0.916667                0.25           0.0138889        16
       12            0.916667            0.916667            0.333333           0.0138889        17
       13            0.916667            0.916667            0.416667           0.0138889        18
       14            0.916667            0.916667                 0.5           0.0138889        19
       15            0.916667            0.916667            0.583333           0.0138889        20
       16            0.916667            0.916667            0.666667           0.0138889        21
       17            0.916667            0.916667                0.75           0.0138889        22
       18            0.916667            0.916667            0.833333          0.00694444        23
       19            0.833333            0.833333                   0          0.00347222        26
       20            0.916667                0.75                0.75           0.0138889        27
       21            0.666667            0.666667            0.833333           0.0138889        28
       22            0.833333            0.833333                0.25           0.0138889        29
       23            0.833333            0.833333            0.333333           0.0138889        30
       24            0.833333            0.833333            0.416667           0.0138889        31
       25            0.833333            0.833333                 0.5           0.0138889        32
       26            0.833333            0.833333            0.583333           0.0138889        33
       27            0.833333            0.833333            0.666667          0.00694444        34
       28                   0                0.75                0.75          0.00347222        39
       29            0.916667            0.666667            0.666667           0.0138889        40
       30            0.833333            0.583333            0.583333           0.0138889        41
       31                0.75                0.75                0.25           0.0138889        42
       32                0.75                0.75            0.333333           0.0138889        43
       33                0.75                0.75            0.416667           0.0138889        44
       34                0.75                0.75                 0.5          0.00694444        45
       35                   0            0.666667            0.666667          0.00347222        52
       36            0.916667            0.583333            0.583333           0.0138889        53
       37            0.833333                 0.5                 0.5           0.0138889        54
       38            0.666667            0.666667                0.25           0.0138889        55
       39            0.666667            0.666667            0.333333          0.00694444        56
       40            0.583333            0.583333                   0          0.00347222        65
       41            0.916667                 0.5                 0.5           0.0138889        66
       42            0.833333            0.416667            0.416667          0.00694444        67
       43                   0                 0.5                 0.5          0.00173611        78
       44            0.916667            0.833333                0.75           0.0138889       171
       45            0.916667            0.833333            0.666667           0.0277778       172
       46            0.916667            0.833333            0.583333           0.0277778       173
       47            0.916667            0.833333                 0.5           0.0277778       174
       48            0.916667            0.833333            0.416667           0.0138889       175
       49            0.916667                0.75            0.666667           0.0138889       184
       50            0.916667                0.75            0.583333           0.0277778       185
       51            0.916667                0.75                 0.5           0.0277778       186
       52            0.916667                0.75            0.416667           0.0277778       187
       53            0.916667                0.75            0.333333           0.0277778       188
       54            0.833333                0.75                 0.5           0.0277778       189
       55            0.833333                0.75            0.583333           0.0138889       190
       56            0.916667            0.666667            0.583333           0.0138889       197
       57            0.916667            0.666667                 0.5           0.0277778       198
       58            0.916667            0.666667            0.416667           0.0277778       199
       59            0.916667            0.666667            0.333333           0.0277778       200
       60            0.916667            0.666667                0.25           0.0138889       201
       61            0.916667            0.583333                 0.5           0.0138889       210
       62            0.916667            0.583333            0.416667           0.0277778       211
       63            0.916667            0.583333            0.333333           0.0138889       212
       64            0.916667                 0.5            0.416667          0.00694444       223
       65            0.833333            0.666667                 0.5           0.0138889       342
       66            0.833333            0.666667            0.416667           0.0277778       343
       67            0.833333            0.666667            0.333333           0.0138889       344
       68            0.833333            0.583333            0.416667           0.0138889       355
       69            0.833333            0.583333            0.333333           0.0277778       356
       70            0.833333            0.583333                0.25           0.0138889       357
       71            0.833333                 0.5            0.333333          0.00694444       368
       72                0.75                 0.5                0.25          0.00347222       513
                               nkstot now = 72

  KPOINTS            DIRECT_X            DIRECT_Y            DIRECT_Z              WEIGHT
        1                   0                   0                   0         0.000578704
        2            0.916667            0.916667            0.916667          0.00462963
        3            0.833333            0.833333            0.833333          0.00462963
        4                0.75                0.75                0.75          0.00462963
        5            0.666667            0.666667            0.666667          0.00462963
        6            0.583333            0.583333            0.583333          0.00462963
        7                 0.5                 0.5                 0.5          0.00231481
        8                   0            0.916667            0.916667          0.00347222
        9            0.916667            0.833333            0.833333           0.0138889
       10            0.833333                0.75                0.75           0.0138889
       11            0.916667            0.916667                0.25           0.0138889
       12            0.916667            0.916667            0.333333           0.0138889
       13            0.916667            0.916667            0.416667           0.0138889
       14            0.916667            0.916667                 0.5           0.0138889
       15            0.916667            0.916667            0.583333           0.0138889
       16            0.916667            0.916667            0.666667           0.0138889
       17            0.916667            0.916667                0.75           0.0138889
       18            0.916667            0.916667            0.833333          0.00694444
       19            0.833333            0.833333                   0          0.00347222
       20            0.916667                0.75                0.75           0.0138889
       21            0.666667            0.666667            0.833333           0.0138889
       22            0.833333            0.833333                0.25           0.0138889
       23            0.833333            0.833333            0.333333           0.0138889
       24            0.833333            0.833333            0.416667           0.0138889
       25            0.833333            0.833333                 0.5           0.0138889
       26            0.833333            0.833333            0.583333           0.0138889
       27            0.833333            0.833333            0.666667          0.00694444
       28                   0                0.75                0.75          0.00347222
       29            0.916667            0.666667            0.666667           0.0138889
       30            0.833333            0.583333            0.583333           0.0138889
       31                0.75                0.75                0.25           0.0138889
       32                0.75                0.75            0.333333           0.0138889
       33                0.75                0.75            0.416667           0.0138889
       34                0.75                0.75                 0.5          0.00694444
       35                   0            0.666667            0.666667          0.00347222
       36            0.916667            0.583333            0.583333           0.0138889
       37            0.833333                 0.5                 0.5           0.0138889
       38            0.666667            0.666667                0.25           0.0138889
       39            0.666667            0.666667            0.333333          0.00694444
       40            0.583333            0.583333                   0          0.00347222
       41            0.916667                 0.5                 0.5           0.0138889
       42            0.833333            0.416667            0.416667          0.00694444
       43                   0                 0.5                 0.5          0.00173611
       44            0.916667            0.833333                0.75           0.0138889
       45            0.916667            0.833333            0.666667           0.0277778
       46            0.916667            0.833333            0.583333           0.0277778
       47            0.916667            0.833333                 0.5           0.0277778
       48            0.916667            0.833333            0.416667           0.0138889
       49            0.916667                0.75            0.666667           0.0138889
       50            0.916667                0.75            0.583333           0.0277778
       51            0.916667                0.75                 0.5           0.0277778
       52            0.916667                0.75            0.416667           0.0277778
       53            0.916667                0.75            0.333333           0.0277778
       54            0.833333                0.75                 0.5           0.0277778
       55            0.833333                0.75            0.583333           0.0138889
       56            0.916667            0.666667            0.583333           0.0138889
       57            0.916667            0.666667                 0.5           0.0277778
       58            0.916667            0.666667            0.416667           0.0277778
       59            0.916667            0.666667            0.333333           0.0277778
       60            0.916667            0.666667                0.25           0.0138889
       61            0.916667            0.583333                 0.5           0.0138889
       62            0.916667            0.583333            0.416667           0.0277778
       63            0.916667            0.583333            0.333333           0.0138889
       64            0.916667                 0.5            0.416667          0.00694444
       65            0.833333            0.666667                 0.5           0.0138889
       66            0.833333            0.666667            0.416667           0.0277778
       67            0.833333            0.666667            0.333333           0.0138889
       68            0.833333            0.583333            0.416667           0.0138889
       69            0.833333            0.583333            0.333333           0.0277778
       70            0.833333            0.583333                0.25           0.0138889
       71            0.833333                 0.5            0.333333          0.00694444
       72                0.75                 0.5                0.25          0.00347222

           k-point number in this process = 72
       minimum distributed K point number = 72

  KPOINTS         CARTESIAN_X         CARTESIAN_Y         CARTESIAN_Z              WEIGHT
        1                   0                   0                   0          0.00115741
        2            0.916667            0.916667            0.916667          0.00925926
        3            0.833333            0.833333            0.833333          0.00925926
        4                0.75                0.75                0.75          0.00925926
        5            0.666667            0.666667            0.666667          0.00925926
        6            0.583333            0.583333            0.583333          0.00925926
        7                 0.5                 0.5                 0.5          0.00462963
        8             1.83333                   0                   0          0.00694444
        9                0.75            0.916667            0.916667           0.0277778
       10            0.666667            0.833333            0.833333           0.0277778
       11                0.25                0.25             1.58333           0.0277778
       12            0.333333            0.333333                 1.5           0.0277778
       13            0.416667            0.416667             1.41667           0.0277778
       14                 0.5                 0.5             1.33333           0.0277778
       15            0.583333            0.583333                1.25           0.0277778
       16            0.666667            0.666667             1.16667           0.0277778
       17                0.75                0.75             1.08333           0.0277778
       18            0.833333            0.833333                   1           0.0138889
       19                   0                   0             1.66667          0.00694444
       20            0.583333            0.916667            0.916667           0.0277778
       21            0.833333            0.833333                 0.5           0.0277778
       22                0.25                0.25             1.41667           0.0277778
       23            0.333333            0.333333             1.33333           0.0277778
       24            0.416667            0.416667                1.25           0.0277778
       25                 0.5                 0.5             1.16667           0.0277778
       26            0.583333            0.583333             1.08333           0.0277778
       27            0.666667            0.666667                   1           0.0138889
       28                 1.5                   0                   0          0.00694444
       29            0.416667            0.916667            0.916667           0.0277778
       30            0.333333            0.833333            0.833333           0.0277778
       31                0.25                0.25                1.25           0.0277778
       32            0.333333            0.333333             1.16667           0.0277778
       33            0.416667            0.416667             1.08333           0.0277778
       34                 0.5                 0.5                   1           0.0138889
       35             1.33333                   0                   0          0.00694444
       36                0.25            0.916667            0.916667           0.0277778
       37            0.166667            0.833333            0.833333           0.0277778
       38                0.25                0.25             1.08333           0.0277778
       39            0.333333            0.333333                   1           0.0138889
       40                   0                   0             1.16667          0.00694444
       41           0.0833333            0.916667            0.916667           0.0277778
       42                   0            0.833333            0.833333           0.0138889
       43                   1                   0                   0          0.00347222
       44            0.666667            0.833333                   1           0.0277778
       45            0.583333                0.75             1.08333           0.0555556
       46                 0.5            0.666667             1.16667           0.0555556
       47            0.416667            0.583333                1.25           0.0555556
       48            0.333333                 0.5             1.33333           0.0277778
       49                 0.5            0.833333                   1           0.0277778
       50            0.416667                0.75             1.08333           0.0555556
       51            0.333333            0.666667             1.16667           0.0555556
       52                0.25            0.583333                1.25           0.0555556
       53            0.166667                 0.5             1.33333           0.0555556
       54            0.416667            0.583333             1.08333           0.0555556
       55                 0.5            0.666667                   1           0.0277778
       56            0.333333            0.833333                   1           0.0277778
       57                0.25                0.75             1.08333           0.0555556
       58            0.166667            0.666667             1.16667           0.0555556
       59           0.0833333            0.583333                1.25           0.0555556
       60                   0                 0.5             1.33333           0.0277778
       61            0.166667            0.833333                   1           0.0277778
       62           0.0833333                0.75             1.08333           0.0555556
       63                   0            0.666667             1.16667           0.0277778
       64                   0            0.833333                   1           0.0138889
       65            0.333333            0.666667                   1           0.0277778
       66                0.25            0.583333             1.08333           0.0555556
       67            0.166667                 0.5             1.16667           0.0277778
       68            0.166667            0.666667                   1           0.0277778
       69           0.0833333            0.583333             1.08333           0.0555556
       70                   0                 0.5             1.16667           0.0277778
       71                   0            0.666667                   1           0.0138889
       72                   0                 0.5                   1          0.00694444

  KPOINTS            DIRECT_X            DIRECT_Y            DIRECT_Z              WEIGHT
        1                   0                   0                   0          0.00115741
        2            0.916667            0.916667            0.916667          0.00925926
        3            0.833333            0.833333            0.833333          0.00925926
        4                0.75                0.75                0.75          0.00925926
        5            0.666667            0.666667            0.666667          0.00925926
        6            0.583333            0.583333            0.583333          0.00925926
        7                 0.5                 0.5                 0.5          0.00462963
        8                   0            0.916667            0.916667          0.00694444
        9            0.916667            0.833333            0.833333           0.0277778
       10            0.833333                0.75                0.75           0.0277778
       11            0.916667            0.916667                0.25           0.0277778
       12            0.916667            0.916667            0.333333           0.0277778
       13            0.916667            0.916667            0.416667           0.0277778
       14            0.916667            0.916667                 0.5           0.0277778
       15            0.916667            0.916667            0.583333           0.0277778
       16            0.916667            0.916667            0.666667           0.0277778
       17            0.916667            0.916667                0.75           0.0277778
       18            0.916667            0.916667            0.833333           0.0138889
       19            0.833333            0.833333                   0          0.00694444
       20            0.916667                0.75                0.75           0.0277778
       21            0.666667            0.666667            0.833333           0.0277778
       22            0.833333            0.833333                0.25           0.0277778
       23            0.833333            0.833333            0.333333           0.0277778
       24            0.833333            0.833333            0.416667           0.0277778
       25            0.833333            0.833333                 0.5           0.0277778
       26            0.833333            0.833333            0.583333           0.0277778
       27            0.833333            0.833333            0.666667           0.0138889
       28                   0                0.75                0.75          0.00694444
       29            0.916667            0.666667            0.666667           0.0277778
       30            0.833333            0.583333            0.583333           0.0277778
       31                0.75                0.75                0.25           0.0277778
       32                0.75                0.75            0.333333           0.0277778
       33                0.75                0.75            0.416667           0.0277778
       34                0.75                0.75                 0.5           0.0138889
       35                   0            0.666667            0.666667          0.00694444
       36            0.916667            0.583333            0.583333           0.0277778
       37            0.833333                 0.5                 0.5           0.0277778
       38            0.666667            0.666667                0.25           0.0277778
       39            0.666667            0.666667            0.333333           0.0138889
       40            0.583333            0.583333                   0          0.00694444
       41            0.916667                 0.5                 0.5           0.0277778
       42            0.833333            0.416667            0.416667           0.0138889
       43                   0                 0.5                 0.5          0.00347222
       44            0.916667            0.833333                0.75           0.0277778
       45            0.916667            0.833333            0.666667           0.0555556
       46            0.916667            0.833333            0.583333           0.0555556
       47            0.916667            0.833333                 0.5           0.0555556
       48            0.916667            0.833333            0.416667           0.0277778
       49            0.916667                0.75            0.666667           0.0277778
       50            0.916667                0.75            0.583333           0.0555556
       51            0.916667                0.75                 0.5           0.0555556
       52            0.916667                0.75            0.416667           0.0555556
       53            0.916667                0.75            0.333333           0.0555556
       54            0.833333                0.75                 0.5           0.0555556
       55            0.833333                0.75            0.583333           0.0277778
       56            0.916667            0.666667            0.583333           0.0277778
       57            0.916667            0.666667                 0.5           0.0555556
       58            0.916667            0.666667            0.416667           0.0555556
       59            0.916667            0.666667            0.333333           0.0555556
       60            0.916667            0.666667                0.25           0.0277778
       61            0.916667            0.583333                 0.5           0.0277778
       62            0.916667            0.583333            0.416667           0.0555556
       63            0.916667            0.583333            0.333333           0.0277778
       64            0.916667                 0.5            0.416667           0.0138889
       65            0.833333            0.666667                 0.5           0.0277778
       66            0.833333            0.666667            0.416667           0.0555556
       67            0.833333            0.666667            0.333333           0.0277778
       68            0.833333            0.583333            0.416667           0.0277778
       69            0.833333            0.583333            0.333333           0.0555556
       70            0.833333            0.583333                0.25           0.0277778
       71            0.833333                 0.5            0.333333           0.0138889
       72                0.75                 0.5                0.25          0.00694444
 DONE : INIT K-POINTS Time : 0.08882 (SEC)





 >>>>>>>>>>>>>>>>>>>>>>>>>>>>>>>>>>>>>>>>>>>>>>>>>>>>>>>>>>>>>>>>>>>>>>
 |                                                                    |
 | Setup plane waves:                                                 |
 | Use the energy cutoff and the lattice vectors to generate the      |
 | dimensions of FFT grid. The number of FFT grid on each processor   |
 | is 'nrxx'. The number of plane wave basis in reciprocal space is   |
 | different for charege/potential and wave functions. We also set    |
 | the 'sticks' for the parallel of FFT.                              |
 |                                                                    |
 <<<<<<<<<<<<<<<<<<<<<<<<<<<<<<<<<<<<<<<<<<<<<<<<<<<<<<<<<<<<<<<<<<<<<<





 SETUP THE PLANE WAVE BASIS
     energy cutoff for wavefunc (unit:Ry) = 75
            [fft grid for wave functions] = 45, 45, 45
          [fft grid for charge/potential] = 45, 45, 45
                      [fft grid division] = 1, 1, 1
      [big fft grid for charge/potential] = 45, 45, 45
                                     nbxx = 91125
                                     nrxx = 91125

 SETUP PLANE WAVES FOR CHARGE/POTENTIAL
                    number of plane waves = 26301
                         number of sticks = 1159

 SETUP PLANE WAVES FOR WAVE FUNCTIONS
                    number of plane waves = 4645
                         number of sticks = 367

 PARALLEL PW FOR CHARGE/POTENTIAL
     PROC   COLUMNS(POT)             PW
        1           1159          26301
 --------------- sum -------------------
        1           1159          26301

 PARALLEL PW FOR WAVE FUNCTIONS
     PROC     COLUMNS(W)             PW
        1            367           4645
 --------------- sum -------------------
        1            367           4645

 SETUP COORDINATES OF PLANE WAVES
              number of total plane waves = 26301

 SETUP COORDINATES OF PLANE WAVES
                            number of |g| = 289
                                  max |g| = 856
                                  min |g| = 0
 DONE : INIT PLANEWAVE Time : 0.190866 (SEC)

                                     npwx = 3327

 SETUP NONLOCAL PSEUDOPOTENTIALS IN PLANE WAVE BASIS
 Si non-local projectors:
      TOTAL NUMBER OF NONLOCAL PROJECTORS = 0

 nhm = 0, not allocate some matrix. DONE : LOCAL POTENTIAL Time : 0.258706 (SEC)


 Init Non-Local PseudoPotential table : 
 Init Non-Local-Pseudopotential done.
 DONE : NON-LOCAL POTENTIAL Time : 0.25876 (SEC)

                                start_pot = atomic
 DONE : INIT POTENTIAL Time : 0.334297 (SEC)


 Make real space PAO into reciprocal space.
       max mesh points in Pseudopotential = 1601
     dq(describe PAO in reciprocal space) = 0.01
                                    max q = 1045

 number of pseudo atomic orbitals for Si is 0
 DONE : INIT BASIS Time : 16.1284 (SEC)


 -------------------------------------------
 SELF-CONSISTENT
 -------------------------------------------

 PW ALGORITHM --------------- ION=   1  ELEC=   1--------------------------------
  K-point    CG iter num      Time(Sec)
        1       6.750000       1.825464
        2       6.833333       1.893852
        3       7.500000       2.070851
        4       7.083333       2.018053
        5       6.750000       1.843788
        6       6.416667       1.845095
        7       6.416667       1.833812
        8       6.583333       1.839604
        9       7.416667       1.914170
       10       7.666667       2.096574
       11       6.833333       1.899956
       12       7.000000       1.924396
       13       7.000000       1.953958
       14       7.333333       2.020943
       15       7.583333       2.064228
       16       8.000000       2.153215
       17       7.333333       2.080342
       18       7.666667       2.089801
       19       6.416667       2.021130
       20       7.333333       2.273110
       21       7.000000       2.211544
       22       7.000000       2.207637
       23       6.666667       1.995131
       24       7.833333       1.998383
       25       6.750000       2.054829
       26       7.000000       1.985234
       27       7.083333       2.198260
       28       7.833333       2.416450
       29       7.416667       2.059923
       30       6.916667       2.120705
       31       6.750000       2.095166
       32       7.416667       2.235102
       33       7.833333       2.362316
       34       6.750000       2.096300
       35       7.083333       2.283033
       36       7.166667       2.284537
       37       7.416667       1.971279
       38       7.916667       2.106927
       39       7.166667       1.854593
       40       7.083333       1.878589
       41       7.000000       2.040412
       42       7.000000       2.130183
       43       6.416667       2.020163
       44       7.166667       2.200774
       45       7.166667       2.072085
       46       8.000000       2.023817
       47       6.750000       1.703364
       48       7.666667       2.177707
       49       7.750000       2.313206
       50       7.333333       2.232054
       51       7.250000       2.202587
       52       6.750000       1.912198
       53       7.000000       1.735458
       54       7.166667       1.798989
       55       6.750000       1.905564
       56       6.666667       2.017350
       57       7.583333       2.148954
       58       8.000000       2.148210
       59       7.666667       2.407512
       60       6.666667       1.986009
       61       7.416667       1.918577
       62       7.333333       1.906766
       63       7.583333       2.024625
       64       7.333333       1.996236
       65       7.666667       2.011127
       66       7.166667       2.029790
       67       7.000000       2.034249
       68       7.250000       2.114277
       69       7.583333       2.113371
       70       7.666667       2.254247
       71       6.416667       1.943604
       72       6.250000       1.946962

 Density error is 1.213175028914
                          Error Threshold = 0.010000000000

       Energy                       Rydberg                            eV
   E_KohnSham              -16.002773954830             -217.728909591687
     E_Harris              -16.513148574342             -224.672912531628
      E_Fermi               +0.189988483519               +2.584925930235

 PW ALGORITHM --------------- ION=   1  ELEC=   2--------------------------------
  K-point    CG iter num      Time(Sec)
        1       2.083333       0.707736
        2       2.250000       0.746315
        3       2.250000       0.748758
        4       2.333333       0.746547
        5       2.166667       0.718587
        6       2.416667       0.778346
        7       2.333333       0.755261
        8       2.166667       0.844510
        9       2.166667       0.850008
       10       2.166667       0.848744
       11       2.333333       0.877157
       12       2.416667       0.883083
       13       2.416667       0.878059
       14       2.416667       0.953419
       15       2.333333       0.920385
       16       2.333333       0.879788
       17       2.333333       0.893938
       18       2.166667       0.851093
       19       2.250000       0.855785
       20       2.166667       0.854162
       21       2.250000       0.790772
       22       2.333333       0.884953
       23       2.416667       0.897946
       24       2.333333       0.672331
       25       2.416667       0.884724
       26       2.416667       0.931534
       27       2.250000       0.874890
       28       2.250000       0.885729
       29       2.500000       0.941534
       30       2.166667       0.884898
       31       2.416667       0.942330
       32       2.416667       0.969473
       33       2.333333       0.957192
       34       2.333333       0.964880
       35       2.500000       0.943493
       36       2.500000       0.969846
       37       2.500000       1.017772
       38       2.333333       0.971652
       39       2.833333       1.067739
       40       2.333333       0.849220
       41       2.500000       0.914923
       42       2.500000       0.939527
       43       2.416667       0.967038
       44       2.250000       0.895724
       45       2.250000       0.862379
       46       2.416667       0.923657
       47       2.416667       0.979979
       48       2.333333       0.976265
       49       2.166667       0.906333
       50       2.250000       0.947832
       51       2.416667       0.951225
       52       2.416667       0.948698
       53       2.500000       1.054707
       54       2.416667       1.026931
       55       2.333333       0.963525
       56       2.333333       0.982175
       57       2.416667       1.029145
       58       2.500000       1.059566
       59       2.500000       1.057610
       60       2.583333       1.078474
       61       2.333333       0.972211
       62       2.416667       0.984233
       63       2.333333       0.849365
       64       2.416667       0.935760
       65       2.333333       0.900724
       66       2.416667       0.965081
       67       2.416667       1.043082
       68       2.416667       1.036822
       69       2.416667       1.033687
       70       2.333333       1.025102
       71       2.416667       1.035493
       72       2.250000       0.978511

 Density error is 0.033167636064
                          Error Threshold = 0.010000000000

       Energy                       Rydberg                            eV
   E_KohnSham              -16.099614091308             -219.046487242880
     E_Harris              -16.091284410739             -218.933156124629
      E_Fermi               +0.370829494925               +5.045394117438

 PW ALGORITHM --------------- ION=   1  ELEC=   3--------------------------------
  K-point    CG iter num      Time(Sec)
        1       2.500000       0.898073
        2       3.333333       1.105628
        3       3.083333       1.054720
        4       3.000000       1.035762
        5       3.000000       1.102226
        6       3.333333       1.206157
        7       3.583333       1.149439
        8       3.333333       1.027847
        9       3.250000       1.072335
       10       2.916667       0.951855
       11       3.166667       1.118990
       12       3.583333       1.247807
       13       4.916667       1.619193
       14       3.500000       1.236091
       15       3.166667       1.129921
       16       3.000000       1.109855
       17       3.166667       1.128499
       18       2.833333       1.038973
       19       3.166667       1.127950
       20       3.250000       1.143090
       21       3.250000       1.129001
       22       3.833333       1.305144
       23       4.000000       1.176692
       24       3.500000       0.972804
       25       3.000000       0.913821
       26       3.166667       1.099982
       27       3.083333       0.994809
       28       3.416667       1.156333
       29       3.416667       1.121191
       30       3.500000       1.136295
       31       4.000000       1.101043
       32       3.500000       1.100080
       33       3.416667       1.135393
       34       3.750000       1.254444
       35       3.750000       1.098029
       36       2.916667       0.873564
       37       3.000000       0.998779
       38       4.916667       1.422365
       39       3.166667       1.034942
       40       3.333333       1.093768
       41       3.666667       1.176996
       42       4.000000       1.230745
       43       3.500000       1.075992
       44       4.333333       1.284189
       45       3.166667       1.052103
       46       3.166667       1.065537
       47       3.833333       1.261810
       48       3.333333       1.083007
       49       3.333333       0.999420
       50       3.916667       1.201804
       51       3.833333       1.222074
       52       3.166667       1.062805
       53       3.166667       1.067001
       54       3.166667       1.115812
       55       3.500000       1.208815
       56       3.916667       1.328836
       57       3.333333       1.120647
       58       3.166667       1.042652
       59       3.000000       1.021487
       60       2.916667       1.051343
       61       3.250000       1.104879
       62       3.333333       1.057088
       63       3.500000       1.124487
       64       3.000000       1.099880
       65       4.000000       1.309117
       66       3.166667       1.109681
       67       2.833333       1.002439
       68       3.250000       1.118535
       69       3.166667       0.797160
       70       3.416667       1.005548
       71       2.750000       0.850126
       72       3.083333       0.932296

 Density error is 0.000679289333
                          Error Threshold = 0.000414595451

       Energy                       Rydberg                            eV
   E_KohnSham              -16.103973927916             -219.105805863101
     E_Harris              -16.103676628142             -219.101760892158
      E_Fermi               +0.391205660738               +5.322626075892

 PW ALGORITHM --------------- ION=   1  ELEC=   4--------------------------------
  K-point    CG iter num      Time(Sec)
        1       3.333333       1.004241
        2       3.083333       0.956047
        3       3.166667       0.954840
        4       3.083333       0.941969
        5       3.250000       0.948380
        6       3.666667       1.014699
        7       6.083333       1.460519
        8       3.250000       0.861943
        9       3.333333       0.935955
       10       3.416667       0.948610
       11       3.250000       0.893027
       12       3.583333       0.973828
       13       4.333333       1.159691
       14       3.333333       0.957727
       15       3.333333       0.955080
       16       3.416667       0.971218
       17       3.250000       0.900198
       18       4.000000       1.062956
       19       3.333333       0.939448
       20       3.500000       0.986029
       21       3.500000       0.926897
       22       3.916667       0.956934
       23       4.333333       1.007568
       24       3.833333       0.873380
       25       3.416667       0.736234
       26       3.583333       0.859843
       27       3.500000       0.845272
       28       3.333333       0.802094
       29       3.666667       0.840743
       30       5.166667       1.106057
       31       4.416667       0.953811
       32       3.416667       0.742707
       33       3.500000       0.740005
       34       3.750000       0.772061
       35       3.500000       0.711495
       36       3.833333       0.468214
       37       4.083333       0.364762
       38       3.916667       0.356746
       39       4.000000       0.361073
       40       4.750000       0.426557
       41       4.333333       0.388054
       42       4.666667       0.413532
       43       4.166667       0.382337
       44       3.416667       0.307715
       45       3.500000       0.312910
       46       3.500000       0.308193
       47       3.166667       0.280497
       48       3.250000       0.287261
       49       3.333333       0.292977
       50       3.500000       0.308123
       51       3.833333       0.329926
       52       3.583333       0.290319
       53       3.500000       0.296507
       54       3.833333       0.327091
       55       3.583333       0.310451
       56       3.416667       0.293312
       57       4.000000       0.330809
       58       3.416667       0.303685
       59       3.583333       0.326214
       60       3.916667       0.347679
       61       4.583333       0.393169
       62       3.750000       0.339003
       63       3.500000       0.315449
       64       4.083333       0.410089
       65       4.250000       0.335811
       66       3.583333       0.289605
       67       3.333333       0.266588
       68       4.250000       0.312464
       69       3.500000       0.250788
       70       3.916667       0.265130
       71       3.666667       0.269234
       72       3.166667       0.236545

 Density error is 0.000007936537
                          Error Threshold = 0.000008491117

       Energy                       Rydberg                            eV
   E_KohnSham              -16.104230323797             -219.109294308027
     E_Harris              -16.104230552948             -219.109297425784
      E_Fermi               +0.394298369678               +5.364704539730

 PW ALGORITHM --------------- ION=   1  ELEC=   5--------------------------------
  K-point    CG iter num      Time(Sec)
        1       3.583333       0.244288
        2       3.916667       0.256995
        3       3.416667       0.239101
        4       3.333333       0.248072
        5       3.500000       0.246734
        6       3.916667       0.282102
        7       3.916667       0.287985
        8       3.916667       0.253766
        9       3.500000       0.265182
       10       3.250000       0.251140
       11       3.250000       0.243288
       12       3.916667       0.294307
       13       4.250000       0.313227
       14       4.083333       0.311143
       15       3.750000       0.290659
       16       3.416667       0.263495
       17       3.583333       0.280484
       18       3.416667       0.268010
       19       3.666667       0.278520
       20       3.500000       0.252067
       21       3.750000       0.260193
       22       3.583333       0.260096
       23       3.916667       0.278872
       24       4.000000       0.270068
       25       3.666667       0.246708
       26       3.916667       0.272167
       27       3.333333       0.239931
       28       3.750000       0.234609
       29       3.666667       0.213681
       30       4.250000       0.221967
       31       3.500000       0.188999
       32       3.916667       0.202694
       33       3.666667       0.191850
       34       3.500000       0.180934
       35       3.916667       0.203704
       36       4.083333       0.210363
       37       3.750000       0.194732
       38       4.000000       0.207758
       39       3.250000       0.175610
       40       3.916667       0.200207
       41       4.250000       0.218924
       42       3.333333       0.175336
       43       3.750000       0.193150
       44       3.500000       0.183907
       45       3.333333       0.180118
       46       3.750000       0.193806
       47       4.250000       0.214210
       48       4.000000       0.199180
       49       3.666667       0.183576
       50       3.750000       0.189534
       51       4.000000       0.196102
       52       3.583333       0.180651
       53       3.666667       0.179969
       54       3.666667       0.183887
       55       3.666667       0.185814
       56       3.916667       0.205516
       57       4.083333       0.204669
       58       4.083333       0.202126
       59       3.583333       0.179874
       60       3.750000       0.187705
       61       4.250000       0.207177
       62       4.083333       0.199861
       63       4.000000       0.190616
       64       3.833333       0.175180
       65       3.666667       0.157726
       66       3.833333       0.160888
       67       3.500000       0.148670
       68       3.666667       0.153795
       69       3.916667       0.162101
       70       3.833333       0.159669
       71       3.500000       0.142021
       72       3.500000       0.134649

 Density error is 0.000001062992
                          Error Threshold = 0.000000099207

       Energy                       Rydberg                            eV
   E_KohnSham              -16.104231954122             -219.109316489739
     E_Harris              -16.104232480095             -219.109323645966
      E_Fermi               +0.394174337469               +5.363016994952

 PW ALGORITHM --------------- ION=   1  ELEC=   6--------------------------------
  K-point    CG iter num      Time(Sec)
        1       2.750000       0.098034
        2       2.666667       0.095164
        3       2.333333       0.086893
        4       2.166667       0.081717
        5       2.500000       0.092939
        6       2.750000       0.099452
        7       3.416667       0.111468
        8       2.500000       0.087350
        9       2.750000       0.093941
       10       2.500000       0.087755
       11       2.416667       0.085466
       12       2.583333       0.088610
       13       2.583333       0.089395
       14       2.416667       0.085265
       15       2.500000       0.086882
       16       2.250000       0.082902
       17       2.416667       0.086099
       18       2.666667       0.090014
       19       2.500000       0.085999
       20       2.583333       0.089389
       21       2.333333       0.082169
       22       2.833333       0.093657
       23       2.916667       0.096381
       24       2.750000       0.092718
       25       2.333333       0.080817
       26       2.416667       0.084548
       27       2.583333       0.089880
       28       3.000000       0.099811
       29       2.666667       0.090814
       30       2.666667       0.091602
       31       2.750000       0.092431
       32       2.500000       0.085685
       33       2.416667       0.084461
       34       2.916667       0.096979
       35       2.833333       0.093571
       36       2.500000       0.086506
       37       2.500000       0.085366
       38       2.583333       0.088173
       39       3.000000       0.097601
       40       2.833333       0.097036
       41       2.916667       0.096189
       42       2.500000       0.084764
       43       2.666667       0.089428
       44       2.583333       0.086217
       45       2.500000       0.091180
       46       2.500000       0.083423
       47       2.583333       0.085143
       48       2.500000       0.083896
       49       2.500000       0.084725
       50       2.500000       0.082799
       51       2.916667       0.093004
       52       2.583333       0.087818
       53       2.583333       0.085259
       54       2.916667       0.093432
       55       2.750000       0.088665
       56       3.083333       0.097905
       57       2.583333       0.084381
       58       2.333333       0.078459
       59       2.583333       0.086536
       60       2.916667       0.092203
       61       2.916667       0.096982
       62       2.583333       0.080712
       63       2.833333       0.080117
       64       2.833333       0.086257
       65       2.750000       0.079779
       66       2.500000       0.074080
       67       2.500000       0.073133
       68       2.750000       0.081040
       69       2.583333       0.076285
       70       2.333333       0.069722
       71       2.583333       0.078178
       72       2.416667       0.075168

 Density error is 0.000000016309
                          Error Threshold = 0.000000013287

       Energy                       Rydberg                            eV
   E_KohnSham              -16.104232133604             -219.109318931717
     E_Harris              -16.104232133674             -219.109318932661
       E_band               -0.131026377662               -1.782705324504
   E_one_elec               +3.615095304100              +49.185894948802
    E_Hartree               +1.178209525537              +16.030362985177
         E_xc               -4.680623581846              -63.683150906280
      E_Ewald              -16.216913381395             -220.642425959417
      E_demet               -0.000000000000               -0.000000000000
      E_descf               +0.000000000000               +0.000000000000
     E_efield               +0.000000000000               +0.000000000000
        E_exx               +0.000000000000               +0.000000000000
      E_Fermi               +0.394242735701               +5.363947600647

 charge density convergence is achieved
 final etot is -219.109318931717 eV

 STATE ENERGY(eV) AND OCCUPATIONS    NSPIN == 1
 1/72 kpoint (Cartesian) = 0.00000 0.00000 0.00000 (3287 pws)
       1      -7.193271       0.001157
       2       5.222966       0.001157
       3       5.222966       0.001157
       4       5.222966       0.001157
       5       5.391064       0.000000
       6       7.830550       0.000000
       7       7.830550       0.000000
       8       7.830550       0.000000
       9      11.694332       0.000000
      10      13.886035       0.000000
      11      13.886035       0.000000
      12      16.200531       0.000000

 2/72 kpoint (Cartesian) = 0.916667 0.916667 0.916667 (3293 pws)
       1      -7.110290       0.009259
       2       3.760952       0.009259
       3       5.074842       0.009259
       4       5.074842       0.009259
       5       6.296311       0.000000
       6       8.042766       0.000000
       7       8.042766       0.000000
       8       8.177770       0.000000
       9      12.172819       0.000000
      10      13.488175       0.000000
      11      13.488175       0.000000
      12      15.771004       0.000000

 3/72 kpoint (Cartesian) = 0.833333 0.833333 0.833333 (3296 pws)
       1      -6.864632       0.009259
       2       2.161175       0.009259
       3       4.756894       0.009259
       4       4.756894       0.009259
       5       6.265287       0.000000
       6       8.489539       0.000000
       7       8.489538       0.000000
       8       9.386888       0.000000
       9      13.008224       0.000000
      10      13.008224       0.000000
      11      13.181264       0.000000
      12      15.309252       0.000000

 4/72 kpoint (Cartesian) = 0.750000 0.750000 0.750000 (3305 pws)
       1      -6.468756       0.009259
       2       0.651256       0.009259
       3       4.433279       0.009259
       4       4.433279       0.009259
       5       5.937802       0.000000
       6       8.833745       0.000000
       7       8.833745       0.000000
       8      10.898430       0.000000
       9      13.042453       0.000000
      10      13.042453       0.000000
      11      13.391367       0.000000
      12      16.251114       0.000000

 5/72 kpoint (Cartesian) = 0.666667 0.666667 0.666667 (3293 pws)
       1      -5.956489       0.009259
       2      -0.680847       0.009259
       3       4.179025       0.009259
       4       4.179025       0.009259
       5       5.643514       0.000000
       6       8.911021       0.000000
       7       8.911021       0.000000
       8      12.423618       0.000000
       9      13.110255       0.000000
      10      13.767583       0.000000
      11      13.767583       0.000000
      12      17.995395       0.000000

 6/72 kpoint (Cartesian) = 0.583333 0.583333 0.583333 (3281 pws)
       1      -5.427560       0.009259
       2      -1.709643       0.009259
       3       4.020936       0.009259
       4       4.020936       0.009259
       5       5.454711       0.000000
       6       8.850425       0.000000
       7       8.850425       0.000000
       8      12.611728       0.000000
       9      14.342777       0.000000
      10      15.043107       0.000000
      11      15.043107       0.000000
      12      17.914549       0.000000

 7/72 kpoint (Cartesian) = 0.500000 0.500000 0.500000 (3274 pws)
       1      -5.161596       0.004630
       2      -2.143421       0.004630
       3       3.967613       0.004630
       4       3.967613       0.004630
       5       5.390423       0.000000
       6       8.812549       0.000000
       7       8.812549       0.000000
       8      12.520208       0.000000
       9      15.859593       0.000000
      10      16.487421       0.000000
      11      16.554000       0.000000
      12      16.554000       0.000000

 8/72 kpoint (Cartesian) = 1.833333 0.000000 0.000000 (3287 pws)
       1      -7.082436       0.006944
       2       3.704338       0.006944
       3       4.793857       0.006944
       4       4.793857       0.006944
       5       6.885048       0.000000
       6       7.467622       0.000000
       7       8.412085       0.000000
       8       8.412085       0.000000
       9      12.315289       0.000000
      10      12.828946       0.000000
      11      14.015724       0.000000
      12      16.427299       0.000000

 9/72 kpoint (Cartesian) = 0.750000 0.916667 0.916667 (3306 pws)
       1      -6.890302       0.027778
       2       2.500346       0.027778
       3       4.425968       0.027778
       4       4.491198       0.027778
       5       7.122527       0.000000
       6       7.577151       0.000000
       7       8.958486       0.000000
       8       9.272035       0.000000
       9      12.233055       0.000000
      10      13.192003       0.000000
      11      13.842005       0.000000
      12      15.929371       0.000000

 10/72 kpoint (Cartesian) = 0.666667 0.833333 0.833333 (3308 pws)
       1      -6.542505       0.027778
       2       1.067423       0.027778
       3       4.101506       0.027778
       4       4.103294       0.027778
       5       6.837508       0.000000
       6       8.115430       0.000000
       7       9.380608       0.000000
       8      10.247486       0.000000
       9      12.344268       0.000000
      10      13.779182       0.000000
      11      13.966058       0.000000
      12      16.040183       0.000000

 11/72 kpoint (Cartesian) = 0.250000 0.250000 1.583333 (3302 pws)
       1      -6.062945       0.027778
       2      -0.284150       0.027778
       3       3.715727       0.027778
       4       3.881475       0.027778
       5       6.529415       0.000000
       6       8.490118       0.000000
       7       9.473499       0.000000
       8      11.076033       0.000000
       9      13.351935       0.000000
      10      13.864076       0.000000
      11      14.351780       0.000000
      12      17.509910       0.000000

 12/72 kpoint (Cartesian) = 0.333333 0.333333 1.500000 (3300 pws)
       1      -5.519608       0.027778
       2      -1.412482       0.027778
       3       3.410020       0.027778
       4       3.779811       0.027778
       5       6.296798       0.000000
       6       8.593264       0.000000
       7       9.333105       0.000000
       8      12.143847       0.000000
       9      13.588858       0.000000
      10      14.983396       0.000000
      11      15.519233       0.000000
      12      17.804860       0.000000

 13/72 kpoint (Cartesian) = 0.416667 0.416667 1.416667 (3287 pws)
       1      -5.119491       0.027778
       2      -2.082419       0.027778
       3       3.213123       0.027778
       4       3.801098       0.027778
       5       6.173830       0.000000
       6       8.649357       0.000000
       7       9.155914       0.000000
       8      12.825667       0.000000
       9      14.274119       0.000000
      10      16.110664       0.000000
      11      16.395376       0.000000
      12      16.768247       0.000000

 14/72 kpoint (Cartesian) = 0.500000 0.500000 1.333333 (3295 pws)
       1      -5.214939       0.027778
       2      -1.931890       0.027778
       3       3.139182       0.027778
       4       3.938860       0.027778
       5       6.172343       0.000000
       6       8.778719       0.000000
       7       9.035930       0.000000
       8      12.892375       0.000000
       9      14.358685       0.000000
      10      14.703870       0.000000
      11      16.038427       0.000000
      12      17.283879       0.000000

 15/72 kpoint (Cartesian) = 0.583333 0.583333 1.250000 (3299 pws)
       1      -5.701247       0.027778
       2      -1.068103       0.027778
       3       3.198601       0.027778
       4       4.178941       0.027778
       5       6.291893       0.000000
       6       8.957946       0.000000
       7       8.963799       0.000000
       8      12.268563       0.000000
       9      13.335225       0.000000
      10      13.629906       0.000000
      11      15.697453       0.000000
      12      17.664459       0.000000

 16/72 kpoint (Cartesian) = 0.666667 0.666667 1.166667 (3307 pws)
       1      -6.236126       0.027778
       2       0.149298       0.027778
       3       3.401877       0.027778
       4       4.495742       0.027778
       5       6.516262       0.000000
       6       8.799210       0.000000
       7       9.026057       0.000000
       8      11.071489       0.000000
       9      12.484931       0.000000
      10      13.640308       0.000000
      11      14.570899       0.000000
      12      16.923985       0.000000

 17/72 kpoint (Cartesian) = 0.750000 0.750000 1.083333 (3304 pws)
       1      -6.675704       0.027778
       2       1.526785       0.027778
       3       3.766978       0.027778
       4       4.836930       0.027778
       5       6.779356       0.000000
       6       8.446403       0.000000
       7       8.630277       0.000000
       8      10.105833       0.000000
       9      12.320017       0.000000
      10      13.350156       0.000000
      11      13.932138       0.000000
      12      15.917746       0.000000

 18/72 kpoint (Cartesian) = 0.833333 0.833333 1.000000 (3301 pws)
       1      -6.972813       0.013889
       2       2.863676       0.013889
       3       4.350578       0.013889
       4       5.087028       0.013889
       5       6.776320       0.000000
       6       8.080198       0.000000
       7       8.094379       0.000000
       8       9.127165       0.000000
       9      12.747661       0.000000
      10      12.844867       0.000000
      11      13.448561       0.000000
      12      16.074562       0.000000

 19/72 kpoint (Cartesian) = 0.000000 0.000000 1.666667 (3303 pws)
       1      -6.751637       0.006944
       2       2.147570       0.006944
       3       4.030278       0.006944
       4       4.030278       0.006944
       5       6.781093       0.000000
       6       8.081489       0.000000
       7       9.624607       0.000000
       8       9.624607       0.000000
       9      11.634601       0.000000
      10      13.766227       0.000000
      11      14.404724       0.000000
      12      17.111712       0.000000

 20/72 kpoint (Cartesian) = 0.583333 0.916667 0.916667 (3294 pws)
       1      -6.454099       0.027778
       2       1.148438       0.027778
       3       3.587232       0.027778
       4       3.692482       0.027778
       5       6.783863       0.000000
       6       8.152300       0.000000
       7      10.039440       0.000000
       8      10.208074       0.000000
       9      12.064148       0.000000
      10      14.538511       0.000000
      11      14.712129       0.000000
      12      16.839457       0.000000

 21/72 kpoint (Cartesian) = 0.833333 0.833333 0.500000 (3292 pws)
       1      -6.014251       0.027778
       2      -0.032268       0.027778
       3       3.054133       0.027778
       4       3.466790       0.027778
       5       6.938199       0.000000
       6       8.439130       0.000000
       7       9.926156       0.000000
       8      10.436147       0.000000
       9      13.538524       0.000000
      10      15.001591       0.000000
      11      15.080921       0.000000
      12      17.442003       0.000000

 22/72 kpoint (Cartesian) = 0.250000 0.250000 1.416667 (3297 pws)
       1      -5.477878       0.027778
       2      -1.141929       0.027778
       3       2.583368       0.027778
       4       3.374095       0.027778
       5       6.861187       0.000000
       6       8.884682       0.000000
       7      10.313610       0.000000
       8      10.315032       0.000000
       9      14.761481       0.000000
      10      15.325097       0.000000
      11      16.066347       0.000000
      12      17.771186       0.000000

 23/72 kpoint (Cartesian) = 0.333333 0.333333 1.333333 (3293 pws)
       1      -4.988197       0.027778
       2      -1.954667       0.027778
       3       2.240605       0.027778
       4       3.418904       0.027778
       5       6.792375       0.000000
       6       8.955228       0.000000
       7      10.064576       0.000000
       8      11.557435       0.000000
       9      14.456990       0.000000
      10      16.289596       0.000000
      11      16.307143       0.000000
      12      17.086454       0.000000

 24/72 kpoint (Cartesian) = 0.416667 0.416667 1.250000 (3289 pws)
       1      -4.899341       0.027778
       2      -2.085073       0.027778
       3       2.051968       0.027778
       4       3.594839       0.027778
       5       6.829325       0.000000
       6       9.009321       0.000000
       7       9.827947       0.000000
       8      12.988111       0.000000
       9      13.651915       0.000000
      10      14.530290       0.000000
      11      15.550994       0.000000
      12      18.828255       0.000000

 25/72 kpoint (Cartesian) = 0.500000 0.500000 1.166667 (3300 pws)
       1      -5.311110       0.027778
       2      -1.434719       0.027778
       3       2.042062       0.027778
       4       3.883970       0.027778
       5       6.973386       0.000000
       6       9.156101       0.000000
       7       9.611528       0.000000
       8      12.011160       0.000000
       9      13.098475       0.000000
      10      14.415499       0.000000
      11      16.138111       0.000000
      12      18.017066       0.000000

 26/72 kpoint (Cartesian) = 0.583333 0.583333 1.083333 (3307 pws)
       1      -5.855624       0.027778
       2      -0.413967       0.027778
       3       2.256631       0.027778
       4       4.249507       0.027778
       5       7.174562       0.000000
       6       9.267447       0.000000
       7       9.301742       0.000000
       8      10.767065       0.000000
       9      12.194396       0.000000
      10      14.899291       0.000000
      11      16.138298       0.000000
      12      17.367919       0.000000

 27/72 kpoint (Cartesian) = 0.666667 0.666667 1.000000 (3293 pws)
       1      -6.331825       0.013889
       2       0.653865       0.013889
       3       2.797896       0.013889
       4       4.615763       0.013889
       5       7.250478       0.000000
       6       8.825458       0.000000
       7       8.878357       0.000000
       8      10.354139       0.000000
       9      11.977679       0.000000
      10      14.383274       0.000000
      11      14.826155       0.000000
      12      16.746013       0.000000

 28/72 kpoint (Cartesian) = 1.500000 0.000000 0.000000 (3327 pws)
       1      -6.206203       0.006944
       2       0.644905       0.006944
       3       3.332083       0.006944
       4       3.332083       0.006944
       5       6.169177       0.000000
       6       7.950615       0.000000
       7      11.048937       0.000000
       8      11.048937       0.000000
       9      12.035581       0.000000
      10      15.052823       0.000000
      11      15.600569       0.000000
      12      18.250289       0.000000

 29/72 kpoint (Cartesian) = 0.416667 0.916667 0.916667 (3299 pws)
       1      -5.809802       0.027778
       2      -0.206151       0.027778
       3       2.843859       0.027778
       4       3.083145       0.027778
       5       6.261881       0.000000
       6       7.727928       0.000000
       7      11.051760       0.000000
       8      11.567839       0.000000
       9      13.484191       0.000000
      10      15.543058       0.000000
      11      16.392160       0.000000
      12      18.268137       0.000000

 30/72 kpoint (Cartesian) = 0.333333 0.833333 0.833333 (3292 pws)
       1      -5.295129       0.027778
       2      -1.134039       0.027778
       3       2.196240       0.027778
       4       2.970973       0.027778
       5       6.473324       0.000000
       6       8.240831       0.000000
       7      10.733569       0.000000
       8      11.591101       0.000000
       9      15.373862       0.000000
      10      16.266730       0.000000
      11      16.538981       0.000000
      12      18.324293       0.000000

 31/72 kpoint (Cartesian) = 0.250000 0.250000 1.250000 (3283 pws)
       1      -4.756456       0.027778
       2      -1.941376       0.027778
       3       1.651472       0.027778
       4       3.003264       0.027778
       5       6.523749       0.000000
       6       9.469661       0.000000
       7      10.500604       0.000000
       8      11.340286       0.000000
       9      15.246460       0.000000
      10      16.331795       0.000000
      11      17.132527       0.000000
      12      17.557569       0.000000

 32/72 kpoint (Cartesian) = 0.333333 0.333333 1.166667 (3280 pws)
       1      -4.499221       0.027778
       2      -2.278372       0.027778
       3       1.310564       0.027778
       4       3.176156       0.027778
       5       6.645293       0.000000
       6      10.247431       0.000000
       7      11.022357       0.000000
       8      11.194568       0.000000
       9      13.592523       0.000000
      10      14.541756       0.000000
      11      17.092958       0.000000
      12      19.147687       0.000000

 33/72 kpoint (Cartesian) = 0.416667 0.416667 1.083333 (3280 pws)
       1      -4.814435       0.027778
       2      -1.859680       0.027778
       3       1.232770       0.027778
       4       3.473351       0.027778
       5       6.884260       0.000000
       6      10.264610       0.000000
       7      10.646609       0.000000
       8      11.873014       0.000000
       9      12.995561       0.000000
      10      13.115703       0.000000
      11      17.224624       0.000000
      12      19.339571       0.000000

 34/72 kpoint (Cartesian) = 0.500000 0.500000 1.000000 (3310 pws)
       1      -5.354940       0.013889
       2      -1.109579       0.013889
       3       1.511491       0.013889
       4       3.857714       0.013889
       5       7.163636       0.000000
       6      10.052368       0.000000
       7      10.179127       0.000000
       8      10.596249       0.000000
       9      12.320522       0.000000
      10      14.754137       0.000000
      11      17.192461       0.000000
      12      17.850035       0.000000

 35/72 kpoint (Cartesian) = 1.333333 0.000000 0.000000 (3302 pws)
       1      -5.455755       0.006944
       2      -0.795604       0.006944
       3       2.803393       0.006944
       4       2.803393       0.006944
       5       5.770849       0.000000
       6       7.061267       0.000000
       7      12.560523       0.000000
       8      12.560523       0.000000
       9      13.559167       0.000000
      10      15.959647       0.000000
      11      17.450393       0.000000
      12      19.574151       0.000000

 36/72 kpoint (Cartesian) = 0.250000 0.916667 0.916667 (3299 pws)
       1      -4.971070       0.027778
       2      -1.534317       0.027778
       3       2.334582       0.027778
       4       2.659030       0.027778
       5       5.950345       0.000000
       6       6.942223       0.000000
       7      12.547800       0.000000
       8      12.975029       0.000000
       9      15.201534       0.000000
      10      16.787352       0.000000
      11      17.388711       0.000000
      12      18.579954       0.000000

 37/72 kpoint (Cartesian) = 0.166667 0.833333 0.833333 (3281 pws)
       1      -4.414249       0.027778
       2      -2.244157       0.027778
[...]

 41/72 kpoint (Cartesian) = 0.083333 0.916667 0.916667 (3294 pws)
       1      -3.959605       0.027778
       2      -2.797131       0.027778
       3       2.077628       0.027778
       4       2.442792       0.027778
       5       5.858290       0.000000
       6       6.432315       0.000000
       7      14.077335       0.000000
       8      14.299185       0.000000
       9      16.022538       0.000000
      10      16.878082       0.000000
      11      17.161345       0.000000
      12      18.357098       0.000000

 42/72 kpoint (Cartesian) = 0.000000 0.833333 0.833333 (3288 pws)
       1      -3.587418       0.013889
       2      -3.149599       0.013889
       3       1.473094       0.013889
       4       2.556634       0.013889
       5       6.004938       0.000000
       6       7.623463       0.000000
       7      13.570626       0.000000
       8      13.695051       0.000000
       9      14.330642       0.000000
      10      15.469953       0.000000
      11      18.476636       0.000000
      12      20.050430       0.000000

 43/72 kpoint (Cartesian) = 1.000000 0.000000 0.000000 (3306 pws)
       1      -3.406016       0.003472
       2      -3.405751       0.003472
       3       2.367974       0.003472
       4       2.367974       0.003472
       5       5.807539       0.000000
       6       5.807587       0.000000
       7      15.044095       0.000000
       8      15.044095       0.000000
       9      16.996398       0.000000
      10      16.996581       0.000000
      11      17.288065       0.000000
      12      17.288065       0.000000

 44/72 kpoint (Cartesian) = 0.666667 0.833333 1.000000 (3302 pws)
       1      -6.645939       0.027778
       2       1.612925       0.027778
       3       3.575726       0.027778
       4       4.428824       0.027778
       5       7.447538       0.000000
       6       7.611641       0.000000
       7       9.379722       0.000000
       8       9.930862       0.000000
       9      12.023401       0.000000
      10      13.937493       0.000000
      11      14.083571       0.000000
      12      16.484331       0.000000

 45/72 kpoint (Cartesian) = 0.583333 0.750000 1.083333 (3302 pws)
       1      -6.251711       0.055556
       2       0.443654       0.055556
       3       2.980638       0.055556
       4       4.160291       0.055556
       5       7.355496       0.000000
       6       8.113956       0.000000
       7       9.820737       0.000000
       8      10.123034       0.000000
       9      12.535878       0.000000
      10      14.362437       0.000000
      11      14.999805       0.000000
      12      16.826544       0.000000

 46/72 kpoint (Cartesian) = 0.500000 0.666667 1.166667 (3297 pws)
       1      -5.740022       0.055556
       2      -0.740886       0.055556
       3       2.632230       0.055556
       4       3.851325       0.055556
       5       7.126461       0.000000
       6       8.500963       0.000000
       7       9.885882       0.000000
       8      10.733386       0.000000
       9      13.508602       0.000000
      10      14.469244       0.000000
      11      16.101973       0.000000
      12      17.498227       0.000000

 47/72 kpoint (Cartesian) = 0.416667 0.583333 1.250000 (3289 pws)
       1      -5.207409       0.055556
       2      -1.710408       0.055556
       3       2.450535       0.055556
       4       3.627893       0.055556
       5       6.962929       0.000000
       6       8.526648       0.000000
       7       9.840462       0.000000
       8      11.904859       0.000000
       9      14.153041       0.000000
      10      14.940778       0.000000
      11      16.058842       0.000000
      12      17.661107       0.000000

 48/72 kpoint (Cartesian) = 0.333333 0.500000 1.333333 (3282 pws)
       1      -4.935874       0.027778
       2      -2.131897       0.027778
       3       2.394485       0.027778
       4       3.547385       0.027778
       5       6.905539       0.000000
       6       8.500382       0.000000
       7       9.806672       0.000000
       8      13.001197       0.000000
       9      13.682837       0.000000
      10      15.100492       0.000000
      11      16.527559       0.000000
      12      16.818478       0.000000

 49/72 kpoint (Cartesian) = 0.500000 0.833333 1.000000 (3300 pws)
       1      -6.108122       0.027778
       2       0.333104       0.027778
       3       2.885559       0.027778
       4       3.543780       0.027778
       5       6.854568       0.000000
       6       8.128809       0.000000
       7      10.025487       0.000000
       8      10.897989       0.000000
       9      12.857534       0.000000
      10      15.048171       0.000000
      11      15.606263       0.000000
      12      17.387440       0.000000

 50/72 kpoint (Cartesian) = 0.416667 0.750000 1.083333 (3296 pws)
       1      -5.629923       0.055556
       2      -0.636373       0.055556
       3       2.309781       0.055556
       4       3.277933       0.055556
       5       7.148238       0.000000
       6       8.452364       0.000000
       7       9.728538       0.000000
       8      11.295060       0.000000
       9      13.938308       0.000000
      10      15.735009       0.000000
      11      16.337346       0.000000
      12      17.795772       0.000000

 51/72 kpoint (Cartesian) = 0.333333 0.666667 1.166667 (3295 pws)
       1      -5.082536       0.055556
       2      -1.565581       0.055556
       3       1.900367       0.055556
       4       3.091509       0.055556
       5       7.186141       0.000000
       6       9.050610       0.000000
       7       9.928576       0.000000
       8      11.288427       0.000000
       9      14.988768       0.000000
      10      15.391264       0.000000
      11      16.697461       0.000000
      12      17.879640       0.000000

 52/72 kpoint (Cartesian) = 0.250000 0.583333 1.250000 (3285 pws)
       1      -4.672656       0.055556
       2      -2.160187       0.055556
       3       1.642665       0.055556
       4       3.076561       0.055556
       5       7.239104       0.000000
       6       8.954490       0.000000
       7      10.965367       0.000000
       8      11.503856       0.000000
       9      13.472924       0.000000
      10      16.080195       0.000000
      11      16.746950       0.000000
      12      17.113722       0.000000

 53/72 kpoint (Cartesian) = 0.166667 0.500000 1.333333 (3283 pws)
       1      -4.784665       0.055556
       2      -2.002931       0.055556
       3       1.553839       0.055556
       4       3.235457       0.055556
       5       7.394206       0.000000
       6       8.857305       0.000000
       7      10.877222       0.000000
       8      11.888029       0.000000
       9      13.135686       0.000000
      10      14.718753       0.000000
      11      16.458485       0.000000
      12      18.819798       0.000000

 54/72 kpoint (Cartesian) = 0.416667 0.583333 1.083333 (3292 pws)
       1      -5.285919       0.055556
       2      -1.248608       0.055556
       3       1.684953       0.055556
       4       3.532300       0.055556
       5       7.624694       0.000000
       6       8.780842       0.000000
       7      10.225951       0.000000
       8      11.066226       0.000000
       9      13.350775       0.000000
      10      14.793758       0.000000
      11      16.800721       0.000000
      12      18.189823       0.000000

 55/72 kpoint (Cartesian) = 0.500000 0.666667 1.000000 (3301 pws)
       1      -5.818907       0.027778
       2      -0.346777       0.027778
       3       2.130729       0.027778
       4       3.892916       0.027778
       5       7.806415       0.000000
       6       8.321798       0.000000
       7       9.833946       0.000000
       8      10.531375       0.000000
       9      12.652421       0.000000
      10      15.583457       0.000000
      11      15.957193       0.000000
      12      17.573659       0.000000

 56/72 kpoint (Cartesian) = 0.333333 0.833333 1.000000 (3309 pws)
       1      -5.370997       0.027778
       2      -0.945624       0.027778
       3       2.387108       0.027778
       4       2.816323       0.027778
       5       6.449086       0.000000
       6       7.495103       0.000000
       7      11.069676       0.000000
       8      12.494894       0.000000
       9      14.356018       0.000000
      10      16.476831       0.000000
      11      16.818694       0.000000
      12      18.744465       0.000000

 57/72 kpoint (Cartesian) = 0.250000 0.750000 1.083333 (3297 pws)
       1      -4.831364       0.055556
       2      -1.722881       0.055556
       3       1.819619       0.055556
       4       2.614485       0.055556
       5       6.779046       0.000000
       6       8.047284       0.000000
       7      10.728532       0.000000
       8      12.797917       0.000000
       9      15.429994       0.000000
      10      15.760383       0.000000
      11      17.895344       0.000000
      12      18.093714       0.000000

 58/72 kpoint (Cartesian) = 0.166667 0.666667 1.166667 (3290 pws)
       1      -4.328972       0.055556
       2      -2.349814       0.055556
       3       1.328262       0.055556
       4       2.617610       0.055556
       5       6.903826       0.000000
       6       9.398291       0.000000
       7      10.409130       0.000000
       8      12.571735       0.000000
       9      13.761375       0.000000
      10      16.448022       0.000000
      11      17.390185       0.000000
      12      18.262498       0.000000

 59/72 kpoint (Cartesian) = 0.083333 0.583333 1.250000 (3280 pws)
       1      -4.284096       0.055556
       2      -2.396421       0.055556
       3       1.070943       0.055556
       4       2.802879       0.055556
       5       7.114671       0.000000
       6      10.151344       0.000000
       7      11.104882       0.000000
       8      11.588579       0.000000
       9      12.750128       0.000000
      10      14.753324       0.000000
      11      18.279717       0.000000
      12      19.109754       0.000000

 60/72 kpoint (Cartesian) = 0.000000 0.500000 1.333333 (3281 pws)
       1      -4.747512       0.027778
       2      -1.856197       0.027778
       3       1.156783       0.027778
       4       3.131008       0.027778
       5       7.422875       0.000000
       6       9.783964       0.000000
       7      10.375892       0.000000
       8      12.052324       0.000000
       9      13.063332       0.000000
      10      13.599120       0.000000
      11      18.353409       0.000000
      12      18.568942       0.000000

 61/72 kpoint (Cartesian) = 0.166667 0.833333 1.000000 (3293 pws)
       1      -4.453260       0.027778
       2      -2.198293       0.027778
       3       2.117012       0.027778
       4       2.326059       0.027778
       5       6.288996       0.000000
       6       6.817056       0.000000
       7      12.470703       0.000000
       8      14.008092       0.000000
       9      15.929450       0.000000
      10      16.096010       0.000000
      11      17.769098       0.000000
      12      18.787455       0.000000

 62/72 kpoint (Cartesian) = 0.083333 0.750000 1.083333 (3293 pws)
       1      -3.899190       0.055556
       2      -2.798304       0.055556
       3       1.555541       0.055556
       4       2.276876       0.055556
       5       6.578502       0.000000
       6       7.716451       0.000000
       7      12.123289       0.000000
       8      13.500213       0.000000
       9      14.812730       0.000000
      10      16.547779       0.000000
      11      17.486591       0.000000
      12      19.263016       0.000000

 63/72 kpoint (Cartesian) = 0.000000 0.666667 1.166667 (3281 pws)
       1      -3.802721       0.027778
       2      -2.872518       0.027778
       3       1.108281       0.027778
       4       2.464175       0.027778
       5       6.787990       0.000000
       6       9.279392       0.000000
       7      11.726856       0.000000
       8      11.915455       0.000000
       9      14.082600       0.000000
      10      15.191283       0.000000
      11      18.767520       0.000000
      12      19.973164       0.000000

 64/72 kpoint (Cartesian) = 0.000000 0.833333 1.000000 (3300 pws)
       1      -3.382986       0.013889
       2      -3.382718       0.013889
       3       2.093284       0.013889
       4       2.093296       0.013889
       5       6.406081       0.000000
       6       6.406120       0.000000
       7      13.909005       0.000000
       8      13.909021       0.000000
       9      16.216236       0.000000
      10      16.216282       0.000000
      11      17.869716       0.000000
      12      17.869749       0.000000

 65/72 kpoint (Cartesian) = 0.333333 0.666667 1.000000 (3283 pws)
       1      -5.125539       0.027778
       2      -1.341049       0.027778
       3       1.688938       0.027778
       4       2.928220       0.027778
       5       7.934924       0.000000
       6       8.466536       0.000000
       7       9.367624       0.000000
       8      12.309829       0.000000
       9      14.169912       0.000000
      10      15.126075       0.000000
      11      17.717467       0.000000
      12      18.396051       0.000000

 66/72 kpoint (Cartesian) = 0.250000 0.583333 1.083333 (3293 pws)
       1      -4.581183       0.055556
       2      -2.047178       0.055556
       3       1.345302       0.055556
       4       2.619732       0.055556
       5       8.195470       0.000000
       6       8.795283       0.000000
       7       9.765050       0.000000
       8      12.601328       0.000000
       9      13.397257       0.000000
      10      15.254203       0.000000
      11      17.928398       0.000000
      12      18.658117       0.000000

 67/72 kpoint (Cartesian) = 0.166667 0.500000 1.166667 (3288 pws)
       1      -4.281852       0.027778
       2      -2.410343       0.027778
       3       1.240892       0.027778
       4       2.502593       0.027778
       5       8.239455       0.000000
       6       8.685203       0.000000
       7      11.269412       0.000000
       8      11.346105       0.000000
       9      12.938723       0.000000
      10      16.790579       0.000000
      11      17.015706       0.000000
      12      17.939834       0.000000

 68/72 kpoint (Cartesian) = 0.166667 0.666667 1.000000 (3291 pws)
       1      -4.282300       0.027778
       2      -2.339780       0.027778
       3       1.521459       0.027778
       4       2.140433       0.027778
       5       7.756346       0.000000
       6       8.128891       0.000000
       7      10.347146       0.000000
       8      13.224273       0.000000
       9      14.469129       0.000000
      10      15.887669       0.000000
      11      18.317440       0.000000
      12      19.191333       0.000000

 69/72 kpoint (Cartesian) = 0.083333 0.583333 1.083333 (3286 pws)
       1      -3.832627       0.055556
       2      -2.805876       0.055556
       3       1.250617       0.055556
       4       1.991047       0.055556
       5       8.075867       0.000000
       6       9.452444       0.000000
       7      10.003740       0.000000
       8      11.476591       0.000000
       9      14.633431       0.000000
      10      16.707402       0.000000
      11      17.415147       0.000000
      12      19.278817       0.000000

 70/72 kpoint (Cartesian) = 0.000000 0.500000 1.166667 (3287 pws)
       1      -4.045920       0.027778
       2      -2.581215       0.027778
       3       1.132946       0.027778
       4       2.199098       0.027778
       5       8.351552       0.000000
       6       9.620473       0.000000
       7       9.930990       0.000000
       8      11.221030       0.000000
       9      14.186732       0.000000
      10      15.534767       0.000000
      11      18.597579       0.000000
      12      19.490083       0.000000

 71/72 kpoint (Cartesian) = 0.000000 0.666667 1.000000 (3294 pws)
       1      -3.335110       0.013889
       2      -3.334835       0.013889
       3       1.664136       0.013889
       4       1.664166       0.013889
       5       7.819163       0.000000
       6       7.819191       0.000000
       7      11.760237       0.000000
       8      11.760253       0.000000
       9      16.119513       0.000000
      10      16.119542       0.000000
      11      18.034520       0.000000
      12      18.034544       0.000000

 72/72 kpoint (Cartesian) = 0.000000 0.500000 1.000000 (3268 pws)
       1      -3.310185       0.006944
       2      -3.309907       0.006944
       3       1.484271       0.006944
       4       1.484308       0.006944
       5       9.602418       0.000000
       6       9.602521       0.000000
       7       9.718462       0.000000
       8       9.718525       0.000000
       9      16.120852       0.000000
      10      16.120877       0.000000
      11      18.106690       0.000000
      12      18.106716       0.000000



 --------------------------------------------
 !FINAL_ETOT_IS -219.1093189317174961 eV
 --------------------------------------------






  |CLASS_NAME---------|NAME---------------|TIME(Sec)-----|CALLS----|AVG------|PER%-------
                                      total        424.300        17     24.96    100.00%
                 Run_pw     plane_wave_line         424.30         1    424.30    100.00%
               PW_Basis              gen_pw           0.10         1      0.10      0.02%
                Cell_PW        opt_cells_pw         424.10         1    424.10     99.95%
                    FFT               FFT3D         353.61     57042      0.01     83.34%
              Potential            v_of_rho           0.23         7      0.03      0.05%
                H_XC_pw                v_xc           0.11         7      0.02      0.02%
           H_Hartree_pw           v_hartree           0.12         7      0.02      0.03%
               wavefunc             wfcinit          15.79         1     15.79      3.72%
              Hamilt_PW      diagH_subspace          67.30       432      0.16     15.86%
              Hamilt_PW               h_psi         375.37     21163      0.02     88.47%
              Hamilt_PW                vloc         374.27     21163      0.02     88.21%
                 Hamilt        diagH_LAPACK           0.13       432      0.00      0.03%
                   Ions         opt_ions_pw         408.17         1    408.17     96.20%
              Electrons     self_consistent         408.17         1    408.17     96.20%
               Symmetry        rho_symmetry           0.12         7      0.02      0.03%
              Electrons             c_bands         273.65         3     91.22     64.49%
                 Hamilt            diagH_pw         374.89       432      0.87     88.36%
               Diago_CG                diag         321.89       432      0.75     75.86%
              electrons             c_bands         138.22         3     46.07     32.58%
                 Charge            sum_band          31.69         6      5.28      7.47%
                 Charge             mix_rho           0.28         6      0.05      0.07%
 ----------------------------------------------------------------------------------------

 CLASS_NAME---------|NAME---------------|MEMORY(MB)--------
                                         69.3348
             wavefunc                 evc        43.8618
         Charge_Pulay                Rrho         5.5618
         Charge_Pulay               dRrho         4.8666
         Charge_Pulay                drho         4.8666
              Use_FFT              porter         1.3905
 ----------------------------------------------------------

 Start  Time  : Fri Sep 10 11:31:50 2021
 Finish Time  : Fri Sep 10 11:38:54 2021
 Total  Time  : 0 h 7 mins 4 secs 
