 *********************************************************
 *                                                       *
 *                  WELCOME TO ABACUS v3.0               *
 *                                                       *
 *            'Atomic-orbital Based Ab-initio            *
 *                  Computation at UStc'                 *
 *                                                       *
 *          Website: http://abacus.ustc.edu.cn/          *
 *                                                       *
 *********************************************************
 Tue May  2 12:48:03 2023
 MAKE THE DIR         : OUT.blpstest/
Notice: symbol 'Li_locpsp' is not an element symbol!!!! set the covalent radius to be 0.
 UNIFORM GRID DIM     : 27 * 27 * 27
 UNIFORM GRID DIM(BIG): 27 * 27 * 27
func,idXC_GGA_X_PBE 101
func,idXC_GGA_C_PBE 130
 DONE(0.133005   SEC) : SETUP UNITCELL
 DONE(0.191745   SEC) : SYMMETRY
 DONE(0.192255   SEC) : INIT K-POINTS
 ---------------------------------------------------------
 Self-consistent calculations for electrons
 ---------------------------------------------------------
 SPIN    KPOINTS         PROCESSORS  
 1       1               1           
 ---------------------------------------------------------
 Use plane wave basis
 ---------------------------------------------------------
 ELEMENT NATOM       XC          
 Li      1           
 ---------------------------------------------------------
 Initial plane wave basis and FFT box
 ---------------------------------------------------------
 DONE(0.193678   SEC) : INIT BASIS
 DONE(0.193708   SEC) : INIT PHI
 DONE(0.220975   SEC) : LOCAL POTENTIAL
 DONE(0.221062   SEC) : NON-LOCAL POTENTIAL
 START CHARGE      : atomic
 DONE(0.296931   SEC) : INIT POTENTIAL
 DONE(0.297021   SEC) : INIT OPTIMIZATION
Default type: double
 DONE(0.298433   SEC) : INIT KEDF
======================== Running OFDFT ========================
Iter        Etot(Ha)          Theta      PotNorm     deltaE(Ha)
0     -2.625008100155e-01   2.000e-01   5.647e-02   -2.625e-01  
1     -2.705899654932e-01   6.646e-02   1.563e-02   -8.089e-03  
2     -2.707513830135e-01   4.194e-03   2.641e-03   -1.614e-04  
3     -2.707591087582e-01   2.849e-03   2.606e-04   -7.726e-06  
4     -2.707591839221e-01   2.801e-04   2.824e-05   -7.516e-08  
5     -2.707591846328e-01   2.224e-05   1.097e-05   -7.107e-10  

  |CLASS_NAME---------|NAME---------------|TIME(Sec)-----|CALLS----|AVG------|PER%-------
                       total               8.421          21        0.4       1e+02     %
   Driver              driver_line         8.4033         1         8.4       1e+02     %
   PW_Basis            setuptransform      0.10455        1         0.1       1.2       %
   PW_Basis            recip2real          1.796          1646      0.0011    21        %
   PW_Basis            gathers_scatterp    0.16738        1646      0.0001    2         %
   Potential           update_from_charge  4.847          127       0.038     58        %
   Potential           cal_v_eff           4.8443         127       0.038     58        %
   H_Hartree_pw        v_hartree           0.41813        127       0.0033    5         %
   PW_Basis            real2recip          1.7676         1646      0.0011    21        %
   PW_Basis            gatherp_scatters    0.16569        1646      0.0001    2         %
   PotXC               cal_v_eff           4.3956         127       0.035     52        %
   XC_Functional       v_xc                4.0664         64        0.064     48        %
   XC_Functional       v_xc_libxc          4.3351         127       0.034     51        %
   ESolver_OF          Run                 8.1216         1         8.1       96        %
   KEDF_LKT            LKT_potential       2.7114         126       0.022     32        %
   KEDF_vW             vw_potential        0.3707         126       0.0029    4.4       %
 ----------------------------------------------------------------------------------------

 START  Time  : Tue May  2 12:48:03 2023
 FINISH Time  : Tue May  2 12:48:11 2023
 TOTAL  Time  : 8
 SEE INFORMATION IN : OUT.blpstest/
