 *********************************************************
 *                                                       *
 *                  WELCOME TO ABACUS                    *
 *                                                       *
 *            'Atomic-orbital Based Ab-initio            *
 *                  Computation at UStc'                 *
 *                                                       *
 *          Website: http://abacus.ustc.edu.cn/          *
 *                                                       *
 *********************************************************
 Wed Apr  6 20:42:18 2022
 MAKE THE DIR         : OUT.stack/
 DONE(0.00936536 SEC) : SETUP UNITCELL
 DONE(0.0424945  SEC) : SYMMETRY
 DONE(0.0435944  SEC) : INIT K-POINTS
 ---------------------------------------------------------
 Cell relaxation calculations
 ---------------------------------------------------------
 SPIN    KPOINTS         PROCESSORS  
 1       31              16          
 ---------------------------------------------------------
 Use plane wave basis
 ---------------------------------------------------------
 ELEMENT NATOM       XC          
 Al      21          PZ-LDA
 ---------------------------------------------------------
 Initial plane wave basis and FFT box
 ---------------------------------------------------------
 DONE(0.0842574  SEC) : INIT PLANEWAVE
 UNIFORM GRID DIM     : 24 * 24 * 375
 UNIFORM GRID DIM(BIG): 24 * 24 * 375
 MEMORY FOR PSI (MB)  : 13.0441
 DONE(0.12094    SEC) : LOCAL POTENTIAL
 DONE(0.12111    SEC) : NON-LOCAL POTENTIAL
 START POTENTIAL      : atomic
 DONE(0.297799   SEC) : INIT POTENTIAL
 DONE(2.8327     SEC) : INIT BASIS
 -------------------------------------------
 RELAX CELL : 1
 RELAX IONS : 1 (in total: 1)
 -------------------------------------------
 ITER   ETOT(eV)       EDIFF(eV)      DRHO2      CG_ITER    TIME(S)    
 CG1    -1.213891e+03  0.000000e+00   1.787e+00  8.070e+00  4.394e+00  
 CG2    -1.213649e+03  2.424135e-01   1.476e+00  2.364e+00  2.013e+00  
 CG3    -1.065379e+03  1.482703e+02   9.844e+02  6.249e+00  3.862e+00  
 CG4    -1.159970e+03  -9.459162e+01  8.783e+02  1.179e+01  5.918e+00  
 CG5    -1.214537e+03  -5.456637e+01  1.401e+00  7.153e+00  4.033e+00  
 CG6    -1.214990e+03  -4.538235e-01  2.544e-01  2.037e+00  1.801e+00  
 CG7    -1.215636e+03  -6.460093e-01  1.559e+00  3.406e+00  2.465e+00  
 CG8    -1.214759e+03  8.778241e-01   6.595e-01  2.076e+00  1.892e+00  
 CG9    -1.213770e+03  9.885953e-01   1.236e+01  3.910e+00  2.665e+00  
 CG10   -1.215688e+03  -1.917672e+00  4.400e-01  3.341e+00  2.424e+00  
 CG11   -1.214377e+03  1.311017e+00   5.886e+00  3.004e+00  2.323e+00  
 CG12   -1.215810e+03  -1.433408e+00  4.457e-01  2.995e+00  2.287e+00  
 CG13   -1.215705e+03  1.049344e-01   3.111e-01  2.000e+00  1.835e+00  
 CG14   -1.215817e+03  -1.115698e-01  1.164e-01  2.051e+00  1.904e+00  
 CG15   -1.215852e+03  -3.482898e-02  2.019e-01  2.222e+00  1.919e+00  
 CG16   -1.215874e+03  -2.288733e-02  1.496e-01  2.001e+00  1.826e+00  
 CG17   -1.215879e+03  -4.724452e-03  1.409e-01  2.000e+00  1.829e+00  
 CG18   -1.215897e+03  -1.778444e-02  1.238e-01  2.000e+00  1.827e+00  
 CG19   -1.215889e+03  7.675449e-03   1.646e-01  2.000e+00  1.828e+00  
 CG20   -1.215839e+03  5.038475e-02   1.059e-01  2.000e+00  1.820e+00  
 CG21   -1.215911e+03  -7.228529e-02  3.369e-02  2.134e+00  1.896e+00  
 CG22   -1.215926e+03  -1.495820e-02  6.424e-02  2.162e+00  1.857e+00  
 CG23   -1.215905e+03  2.067751e-02   6.284e-02  2.000e+00  1.858e+00  
 CG24   -1.215887e+03  1.816635e-02   2.107e-02  2.022e+00  1.813e+00  
 CG25   -1.215899e+03  -1.151832e-02  6.949e-02  2.402e+00  2.012e+00  
 CG26   -1.215898e+03  7.679765e-04   4.076e-02  2.002e+00  1.827e+00  
 CG27   -1.215893e+03  4.833876e-03   2.649e-02  2.000e+00  1.830e+00  
 CG28   -1.215903e+03  -9.425283e-03  5.131e-03  2.079e+00  1.861e+00  
 CG29   -1.215912e+03  -9.852286e-03  4.538e-03  2.339e+00  1.970e+00  
 CG30   -1.215883e+03  2.983236e-02   7.920e-02  2.737e+00  2.172e+00  
 CG31   -1.215922e+03  -3.956622e-02  1.218e-01  3.303e+00  2.403e+00  
 CG32   -1.215897e+03  2.525232e-02   3.141e-01  2.751e+00  2.186e+00  
 CG33   -1.215909e+03  -1.206749e-02  8.193e-02  2.720e+00  2.144e+00  
 CG34   -1.215911e+03  -1.684591e-03  5.778e-02  2.110e+00  1.855e+00  
 CG35   -1.215902e+03  8.266499e-03   4.023e-02  2.054e+00  1.869e+00  
 CG36   -1.215905e+03  -2.273625e-03  2.962e-02  2.224e+00  1.887e+00  
 CG37   -1.215905e+03  -2.495552e-04  2.873e-02  2.114e+00  1.894e+00  
 CG38   -1.215907e+03  -2.334617e-03  2.036e-02  2.000e+00  1.807e+00  
 CG39   -1.215907e+03  -1.736720e-04  1.651e-02  2.023e+00  1.843e+00  
 CG40   -1.215908e+03  -1.140652e-04  1.255e-02  2.008e+00  1.803e+00  
 CG41   -1.215908e+03  -2.384926e-04  1.065e-02  2.000e+00  1.825e+00  
 CG42   -1.215909e+03  -1.261302e-03  1.061e-02  2.000e+00  1.823e+00  
 CG43   -1.215908e+03  1.235096e-03   1.819e-02  2.082e+00  1.861e+00  
 CG44   -1.215908e+03  -4.504123e-04  1.562e-02  2.000e+00  1.823e+00  
 CG45   -1.215907e+03  1.021205e-03   1.721e-02  2.000e+00  1.828e+00  
 CG46   -1.215907e+03  1.047751e-04   1.716e-02  2.112e+00  1.936e+00  
 CG47   -1.215909e+03  -1.388050e-03  2.576e-02  2.024e+00  1.802e+00  
 CG48   -1.215909e+03  -4.952086e-04  2.294e-02  2.000e+00  1.840e+00  
 CG49   -1.215909e+03  -4.849494e-05  2.198e-02  2.000e+00  1.794e+00  
 CG50   -1.215906e+03  2.609964e-03   2.245e-02  2.000e+00  1.846e+00  
 CG51   -1.215909e+03  -2.420325e-03  2.855e-02  2.064e+00  1.821e+00  
 CG52   -1.215911e+03  -2.005861e-03  2.983e-02  2.000e+00  1.860e+00  
 CG53   -1.215910e+03  8.533797e-04   1.015e-01  2.258e+00  1.915e+00  
 CG54   -1.215911e+03  -8.981545e-04  8.404e-02  2.000e+00  1.821e+00  
 CG55   -1.215911e+03  -2.391031e-04  8.509e-02  2.000e+00  1.807e+00  
 CG56   -1.215909e+03  1.840985e-03   8.185e-02  2.000e+00  1.823e+00  
 CG57   -1.215909e+03  4.325112e-04   7.126e-02  2.001e+00  1.820e+00  
 CG58   -1.215908e+03  1.067157e-03   7.067e-02  2.000e+00  1.823e+00  
 CG59   -1.215911e+03  -2.646610e-03  6.292e-02  2.048e+00  1.844e+00  
 CG60   -1.215911e+03  -6.205701e-04  6.299e-02  2.005e+00  1.827e+00  
 CG61   -1.215912e+03  -5.271909e-04  6.615e-02  2.000e+00  1.829e+00  
 CG62   -1.215909e+03  2.356806e-03   6.522e-02  2.000e+00  1.828e+00  
 CG63   -1.215913e+03  -3.677889e-03  4.935e-02  2.016e+00  1.833e+00  
 CG64   -1.215910e+03  3.313096e-03   4.836e-02  2.126e+00  1.878e+00  
 CG65   -1.215903e+03  6.208187e-03   4.383e-02  2.016e+00  1.849e+00  
 CG66   -1.215905e+03  -1.388758e-03  2.773e-02  2.146e+00  1.855e+00  
 CG67   -1.215904e+03  9.208435e-04   1.951e-02  2.000e+00  1.855e+00  
 CG68   -1.215906e+03  -2.405173e-03  1.296e-02  2.072e+00  1.824e+00  
 CG69   -1.215907e+03  -9.072241e-04  1.464e-02  2.007e+00  1.852e+00  
 CG70   -1.215908e+03  -7.444479e-04  1.092e-02  2.012e+00  1.808e+00  
 CG71   -1.215909e+03  -1.237645e-03  9.857e-03  2.000e+00  1.851e+00  
 CG72   -1.215911e+03  -1.882875e-03  1.367e-02  2.000e+00  1.788e+00  
 CG73   -1.215912e+03  -7.930211e-04  9.765e-03  2.174e+00  1.892e+00  
 CG74   -1.215906e+03  5.928755e-03   8.972e-03  2.000e+00  1.826e+00  
 CG75   -1.215907e+03  -8.062408e-04  1.657e-02  2.344e+00  1.968e+00  
 CG76   -1.215908e+03  -1.622803e-03  1.137e-02  2.000e+00  1.813e+00  
 CG77   -1.215908e+03  2.966889e-04   1.312e-02  2.000e+00  1.815e+00  
 CG78   -1.215908e+03  5.255745e-04   1.212e-02  2.000e+00  1.895e+00  
 CG79   -1.215906e+03  1.784364e-03   1.118e-02  2.000e+00  1.781e+00  
 CG80   -1.215906e+03  -1.075620e-04  5.917e-03  2.019e+00  1.847e+00  
 CG81   -1.215907e+03  -1.297832e-03  4.004e-03  2.010e+00  1.789e+00  
 CG82   -1.215907e+03  -1.912402e-04  4.528e-03  2.000e+00  1.840e+00  
 CG83   -1.215907e+03  7.028004e-04   4.835e-03  2.000e+00  1.775e+00  
 CG84   -1.215907e+03  -1.066662e-04  6.544e-03  2.000e+00  1.850e+00  
 CG85   -1.215907e+03  1.663528e-04   7.028e-03  2.000e+00  1.782e+00  
 CG86   -1.215907e+03  -2.133961e-05  6.504e-03  2.000e+00  1.855e+00  
 CG87   -1.215905e+03  1.744110e-03   3.681e-03  2.000e+00  1.788e+00  
 CG88   -1.215905e+03  -4.067702e-04  3.058e-03  2.059e+00  1.881e+00  
 CG89   -1.215906e+03  -6.359516e-04  1.888e-03  2.013e+00  1.804e+00  
 CG90   -1.215906e+03  8.604591e-06   1.303e-03  2.000e+00  1.829e+00  
 CG91   -1.215906e+03  -3.295155e-04  8.820e-04  2.053e+00  1.817e+00  
 CG92   -1.215906e+03  -2.216489e-04  1.082e-03  2.065e+00  1.854e+00  
 CG93   -1.215907e+03  -5.471940e-05  1.019e-03  2.000e+00  1.816e+00  
 CG94   -1.215907e+03  -6.434366e-05  1.016e-03  2.092e+00  1.862e+00  
 CG95   -1.215907e+03  -3.354303e-05  9.653e-04  2.000e+00  1.807e+00  
 CG96   -1.215907e+03  -2.258867e-04  1.293e-03  2.054e+00  1.841e+00  
 CG97   -1.215907e+03  2.159564e-04   1.199e-03  2.000e+00  1.816e+00  
 CG98   -1.215907e+03  -3.171830e-04  1.715e-03  2.106e+00  1.871e+00  
 CG99   -1.215907e+03  2.867182e-04   1.564e-03  2.000e+00  1.811e+00  
 CG100  -1.215907e+03  -2.447092e-04  1.945e-03  2.017e+00  1.832e+00  
 CG101  -1.215907e+03  1.772942e-04   2.083e-03  2.000e+00  1.829e+00  
 CG102  -1.215907e+03  -1.242636e-04  5.889e-03  2.137e+00  1.858e+00  
 CG103  -1.215906e+03  1.333959e-03   5.035e-03  2.010e+00  1.846e+00  
 CG104  -1.215906e+03  -7.424914e-04  7.650e-04  2.161e+00  1.861e+00  
 CG105  -1.215906e+03  1.089227e-05   4.780e-04  2.000e+00  1.858e+00  
 CG106  -1.215906e+03  -1.048088e-04  2.682e-04  2.047e+00  1.827e+00  
 CG107  -1.215906e+03  -1.002520e-04  6.372e-04  2.374e+00  1.994e+00  
 CG108  -1.215907e+03  -3.378437e-05  2.524e-04  2.047e+00  1.844e+00  
 CG109  -1.215906e+03  1.565540e-04   2.428e-04  2.000e+00  1.820e+00  
 CG110  -1.215906e+03  2.368237e-05   1.442e-04  2.166e+00  1.906e+00  
 CG111  -1.215906e+03  -6.025802e-05  1.881e-04  2.186e+00  1.947e+00  
 CG112  -1.215906e+03  1.152825e-05   1.287e-04  2.000e+00  1.843e+00  
 CG113  -1.215906e+03  -3.283332e-05  9.886e-05  2.025e+00  1.801e+00  
 CG114  -1.215906e+03  4.966311e-05   8.579e-05  2.022e+00  1.869e+00  
 CG115  -1.215907e+03  -1.490304e-04  1.587e-03  2.471e+00  2.024e+00  
 CG116  -1.215907e+03  -6.037836e-05  1.354e-03  2.157e+00  1.894e+00  
 CG117  -1.215906e+03  1.294889e-04   1.459e-03  2.000e+00  1.823e+00  
 CG118  -1.215906e+03  1.537005e-04   1.092e-03  2.017e+00  1.833e+00  
 CG119  -1.215906e+03  -1.134272e-04  2.421e-04  2.217e+00  1.940e+00  
 CG120  -1.215906e+03  -3.303408e-05  2.395e-04  2.000e+00  1.793e+00  
 CG121  -1.215906e+03  -1.924996e-05  2.911e-04  2.000e+00  1.845e+00  
 CG122  -1.215907e+03  -2.410897e-04  2.805e-03  2.610e+00  2.083e+00  
 CG123  -1.215907e+03  1.021072e-04   2.659e-03  2.000e+00  1.825e+00  
 CG124  -1.215906e+03  2.997654e-04   2.391e-03  2.000e+00  1.824e+00  
 CG125  -1.215906e+03  -1.542423e-04  6.101e-04  2.469e+00  2.022e+00  
 CG126  -1.215907e+03  -9.793504e-05  7.901e-04  2.174e+00  1.931e+00  
 CG127  -1.215907e+03  -1.682848e-05  1.194e-03  2.246e+00  1.890e+00  
 CG128  -1.215906e+03  2.487676e-04   1.162e-03  2.000e+00  1.811e+00  
 CG129  -1.215906e+03  -5.753870e-05  2.218e-04  2.262e+00  1.922e+00  
 CG130  -1.215906e+03  3.556455e-06   1.091e-04  2.015e+00  1.829e+00  
 CG131  -1.215906e+03  -1.200191e-05  5.452e-05  2.022e+00  1.829e+00  
 CG132  -1.215906e+03  -4.559361e-05  6.345e-05  2.163e+00  1.904e+00  
 CG133  -1.215906e+03  -1.868435e-06  7.450e-05  2.000e+00  1.836e+00  
 CG134  -1.215906e+03  -7.043258e-06  9.575e-05  2.000e+00  1.808e+00  
 CG135  -1.215906e+03  -2.225253e-06  1.097e-04  2.000e+00  1.838e+00  
 CG136  -1.215906e+03  1.008327e-06   1.214e-04  2.000e+00  1.791e+00  
 CG137  -1.215906e+03  7.701718e-06   1.222e-04  2.000e+00  1.839e+00  
 CG138  -1.215906e+03  1.053102e-05   1.100e-04  2.000e+00  1.777e+00  
 CG139  -1.215906e+03  -2.841658e-06  9.152e-05  2.000e+00  1.835e+00  
 CG140  -1.215906e+03  -5.921288e-06  9.659e-05  2.000e+00  1.786e+00  
 CG141  -1.215906e+03  6.392550e-06   1.084e-04  2.000e+00  1.844e+00  
 CG142  -1.215906e+03  8.501679e-06   9.943e-05  2.000e+00  1.784e+00  
 CG143  -1.215906e+03  2.752530e-06   7.760e-05  2.000e+00  1.920e+00  
 CG144  -1.215906e+03  -1.350981e-06  6.863e-05  2.000e+00  1.801e+00  
 CG145  -1.215906e+03  -4.141484e-06  6.756e-05  2.000e+00  1.838e+00  
 CG146  -1.215906e+03  3.976067e-06   7.189e-05  2.000e+00  1.795e+00  
 CG147  -1.215906e+03  6.611161e-06   5.879e-05  2.000e+00  1.831e+00  
 CG148  -1.215906e+03  -1.606189e-06  4.033e-05  2.000e+00  1.811e+00  
 CG149  -1.215906e+03  -2.262660e-05  1.881e-05  2.072e+00  1.855e+00  
 CG150  -1.215906e+03  -6.270979e-07  2.189e-05  2.072e+00  1.848e+00  
 CG151  -1.215906e+03  2.283420e-07   2.259e-05  2.000e+00  1.826e+00  
 CG152  -1.215906e+03  4.519407e-06   2.527e-05  2.000e+00  1.809e+00  
 CG153  -1.215906e+03  -7.433405e-07  1.865e-05  2.000e+00  1.825e+00  
 CG154  -1.215906e+03  8.376712e-08   1.951e-05  2.000e+00  1.827e+00  
 CG155  -1.215906e+03  8.167919e-07   2.083e-05  2.000e+00  1.828e+00  
 CG156  -1.215906e+03  -4.416667e-06  1.713e-05  2.000e+00  1.827e+00  
 CG157  -1.215906e+03  -2.841617e-06  2.794e-05  2.000e+00  1.828e+00  
 CG158  -1.215906e+03  1.519217e-08   3.371e-05  2.000e+00  1.826e+00  
 CG159  -1.215906e+03  -9.675061e-07  3.437e-05  2.000e+00  1.810e+00  
 CG160  -1.215906e+03  8.630643e-06   3.763e-05  2.000e+00  1.863e+00  
 CG161  -1.215906e+03  -7.006461e-06  2.303e-05  2.002e+00  1.802e+00  
 CG162  -1.215906e+03  -6.534146e-06  3.362e-05  2.002e+00  1.847e+00  
 CG163  -1.215906e+03  -1.503517e-07  6.302e-05  2.012e+00  1.801e+00  
 CG164  -1.215906e+03  -2.535670e-08  6.183e-05  2.000e+00  1.898e+00  
 CG165  -1.215906e+03  -1.574005e-06  1.486e-04  2.078e+00  1.841e+00  
 CG166  -1.215906e+03  1.079549e-05   1.362e-04  2.000e+00  1.859e+00  
 CG167  -1.215906e+03  -2.640082e-06  1.097e-04  2.000e+00  1.806e+00  
 CG168  -1.215906e+03  1.070449e-05   1.132e-04  2.000e+00  1.832e+00  
 CG169  -1.215906e+03  2.961768e-05   6.869e-05  2.073e+00  1.862e+00  
 CG170  -1.215906e+03  -2.878712e-05  2.070e-04  2.577e+00  2.067e+00  
 CG171  -1.215906e+03  -1.751504e-05  6.017e-05  2.093e+00  1.885e+00  
 CG172  -1.215906e+03  4.089600e-06   7.527e-05  2.000e+00  1.794e+00  
 CG173  -1.215906e+03  -6.600283e-07  6.392e-05  2.000e+00  1.863e+00  
 CG174  -1.215906e+03  2.737649e-06   6.363e-05  2.000e+00  1.782e+00  
 CG175  -1.215906e+03  4.090140e-06   5.276e-05  2.000e+00  1.898e+00  
 CG176  -1.215906e+03  1.159538e-05   4.834e-05  2.000e+00  1.802e+00  
 CG177  -1.215906e+03  1.064517e-07   2.195e-05  2.041e+00  1.851e+00  
 CG178  -1.215906e+03  -1.150086e-06  1.587e-05  2.000e+00  1.814e+00  
 CG179  -1.215906e+03  -1.796085e-06  1.141e-05  2.000e+00  1.830e+00  
 CG180  -1.215906e+03  -4.081312e-06  1.144e-05  2.000e+00  1.824e+00  
 CG181  -1.215906e+03  -1.991060e-06  1.801e-05  2.000e+00  1.832e+00  
 CG182  -1.215906e+03  7.770844e-06   2.699e-05  2.002e+00  1.830e+00  
 CG183  -1.215906e+03  -7.583446e-06  5.613e-06  2.069e+00  1.862e+00  
 CG184  -1.215906e+03  8.018437e-08   5.767e-06  2.014e+00  1.830e+00  
 CG185  -1.215906e+03  -3.299936e-06  1.420e-05  2.063e+00  1.858e+00  
 CG186  -1.215906e+03  1.282193e-07   1.837e-05  2.000e+00  1.847e+00  
 CG187  -1.215906e+03  3.887475e-07   1.828e-05  2.000e+00  1.812e+00  
 CG188  -1.215906e+03  -1.931344e-06  1.795e-05  2.000e+00  1.845e+00  
 CG189  -1.215906e+03  8.697076e-06   3.245e-05  2.042e+00  1.811e+00  
 CG190  -1.215906e+03  5.945688e-07   7.048e-06  2.064e+00  1.881e+00  
 CG191  -1.215906e+03  -5.877565e-07  1.481e-05  2.323e+00  1.943e+00  
 CG192  -1.215906e+03  4.946476e-06   6.607e-07  2.149e+00  1.900e+00  
 ><><><><><><><><><><><><><><><><><><><><><><
 TOTAL-STRESS (KBAR):
 ><><><><><><><><><><><><><><><><><><><><><><
 -1.164e+01     -3.523e-05     -3.511e-05     
 -3.523e-05     -1.164e+01     -2.027e-05     
 -3.511e-05     -2.027e-05     4.133e+01      
 ETOT DIFF (eV)       : 0.000e+00
 LARGEST GRAD (eV/A)  : 8.738e-03
 -------------------------------------------
 RELAX CELL : 1
 RELAX IONS : 2 (in total: 2)
 -------------------------------------------
 ITER   ETOT(eV)       EDIFF(eV)      DRHO2      CG_ITER    TIME(S)    
 CG1    1.340494e+04   0.000000e+00   5.840e+03  4.617e+01  2.033e+01  
 CG2    -6.432714e+03  -1.983766e+04  1.187e+04  3.331e+01  1.485e+01  
 CG3    -4.184702e+03  2.248012e+03   5.158e+03  2.040e+01  9.451e+00  
 CG4    -3.569986e+03  6.147157e+02   2.723e+03  1.599e+01  7.627e+00  
 CG5    -1.755108e+03  1.814878e+03   3.594e+03  1.135e+01  5.787e+00  
 CG6    -1.916217e+03  -1.611098e+02  1.848e+03  1.309e+01  6.432e+00  
 CG7    -6.273808e+02  1.288837e+03   4.650e+03  1.575e+01  7.489e+00  
 CG8    -9.193180e+02  -2.919372e+02  2.118e+03  1.159e+01  5.827e+00  
 CG9    -1.553359e+03  -6.340413e+02  3.638e+03  1.475e+01  7.074e+00  
 CG10   -1.277325e+03  2.760341e+02   1.603e+03  5.098e+00  3.219e+00  
 CG11   -1.226248e+03  5.107765e+01   4.504e+02  4.409e+00  2.867e+00  
 CG12   -1.235354e+03  -9.106584e+00  2.313e+02  2.441e+00  2.002e+00  
 CG13   -1.183643e+03  5.171134e+01   2.307e+02  2.007e+00  1.834e+00  
 CG14   -1.218216e+03  -3.457313e+01  3.423e+01  2.988e+00  2.269e+00  
 CG15   -1.181163e+03  3.705330e+01   4.939e+02  3.222e+00  2.379e+00  
 CG16   -1.182325e+03  -1.162758e+00  9.101e+01  2.754e+00  2.167e+00  
 CG17   -1.238289e+03  -5.596382e+01  1.072e+02  3.306e+00  2.374e+00  
 CG18   -1.252026e+03  -1.373699e+01  2.476e+02  2.297e+00  1.942e+00  
 CG19   -1.250884e+03  1.141914e+00   2.740e+02  2.061e+00  1.870e+00  
 CG20   -1.256795e+03  -5.910932e+00  2.749e+02  2.091e+00  1.875e+00  
 CG21   -1.255277e+03  1.517960e+00   2.852e+02  2.047e+00  1.858e+00  
 CG22   -1.253335e+03  1.942117e+00   2.842e+02  2.056e+00  1.848e+00  
 CG23   -1.253553e+03  -2.177789e-01  2.650e+02  2.030e+00  1.851e+00  
 CG24   -1.216731e+03  3.682174e+01   3.054e+02  2.046e+00  1.868e+00  
 CG25   -1.177150e+03  3.958099e+01   1.249e+02  2.179e+00  1.876e+00  
 CG26   -1.226033e+03  -4.888300e+01  1.204e+02  3.670e+00  2.584e+00  
 CG27   -1.224960e+03  1.072825e+00   1.548e+02  2.000e+00  1.845e+00  
 CG28   -1.229521e+03  -4.560272e+00  1.644e+02  2.048e+00  1.850e+00  
 CG29   -1.217312e+03  1.220910e+01   1.790e+02  2.000e+00  1.838e+00  
 CG30   -1.222693e+03  -5.381842e+00  1.040e+02  2.061e+00  1.865e+00  
 CG31   -1.222359e+03  3.341664e-01   2.103e+02  2.259e+00  1.953e+00  
 CG32   -1.220767e+03  1.592080e+00   1.523e+02  2.000e+00  1.855e+00  
 CG33   -1.199161e+03  2.160575e+01   1.416e+02  2.000e+00  1.805e+00  
 CG34   -1.203532e+03  -4.370942e+00  2.477e+01  2.377e+00  2.025e+00  
 CG35   -1.207748e+03  -4.215904e+00  3.642e+00  2.070e+00  1.856e+00  
 CG36   -1.215152e+03  -7.403468e+00  2.635e+01  2.457e+00  2.028e+00  
 CG37   -1.214901e+03  2.510187e-01   2.373e+01  2.000e+00  1.846e+00  
 CG38   -1.215490e+03  -5.892126e-01  2.152e+01  2.006e+00  1.807e+00  
 CG39   -1.214478e+03  1.012190e+00   2.705e+01  2.009e+00  1.924e+00  
 CG40   -1.213557e+03  9.209932e-01   1.935e+01  2.009e+00  1.792e+00  
 CG41   -1.211358e+03  2.198395e+00   1.349e+01  2.000e+00  1.868e+00  
 CG42   -1.212369e+03  -1.010686e+00  3.701e+00  2.045e+00  1.831e+00  
 CG43   -1.212884e+03  -5.149867e-01  1.406e+00  2.004e+00  1.844e+00  
 CG44   -1.214456e+03  -1.572209e+00  8.712e-01  2.262e+00  1.928e+00  
 CG45   -1.215051e+03  -5.946470e-01  2.836e+00  2.363e+00  1.984e+00  
 CG46   -1.215884e+03  -8.327656e-01  2.751e+00  2.088e+00  1.882e+00  
 CG47   -1.216035e+03  -1.517358e-01  3.970e+00  2.013e+00  1.821e+00  
 CG48   -1.215415e+03  6.207386e-01   4.081e+00  2.008e+00  1.854e+00  
 CG49   -1.215481e+03  -6.667248e-02  2.928e+00  2.022e+00  1.818e+00  
 CG50   -1.215707e+03  -2.258810e-01  1.667e+00  2.000e+00  1.866e+00  
 CG51   -1.215805e+03  -9.807497e-02  1.684e+00  2.000e+00  1.799e+00  
 CG52   -1.215767e+03  3.795913e-02   2.506e+00  2.000e+00  1.857e+00  
 CG53   -1.216661e+03  -8.938561e-01  3.456e+00  2.000e+00  1.815e+00  
 CG54   -1.215947e+03  7.137921e-01   9.970e+00  2.190e+00  1.907e+00  
 CG55   -1.216277e+03  -3.293019e-01  3.993e+00  2.003e+00  1.836e+00  
 CG56   -1.215560e+03  7.166984e-01   4.118e+00  2.000e+00  1.832e+00  
 CG57   -1.215629e+03  -6.860782e-02  1.376e+00  2.046e+00  1.838e+00  
 CG58   -1.215683e+03  -5.463306e-02  1.140e+00  2.000e+00  1.837e+00  
 CG59   -1.215823e+03  -1.392319e-01  1.052e+00  2.000e+00  1.834e+00  
 CG60   -1.215938e+03  -1.155381e-01  1.318e+00  2.000e+00  1.832e+00  
 CG61   -1.214895e+03  1.043508e+00   1.511e+00  2.000e+00  1.844e+00  
 CG62   -1.216254e+03  -1.359113e+00  3.574e+00  2.437e+00  2.007e+00  
 CG63   -1.215437e+03  8.168257e-01   4.623e+00  2.000e+00  1.843e+00  
 CG64   -1.215210e+03  2.273142e-01   1.388e+00  2.036e+00  1.814e+00  
 CG65   -1.215418e+03  -2.088635e-01  1.327e-01  2.027e+00  1.831e+00  
 CG66   -1.215968e+03  -5.491629e-01  1.171e+01  4.193e+00  2.761e+00  
 CG67   -1.215594e+03  3.738740e-01   5.409e+00  2.725e+00  2.162e+00  
 CG68   -1.215789e+03  -1.951973e-01  4.908e-01  2.751e+00  2.180e+00  
 CG69   -1.215847e+03  -5.765181e-02  2.952e-01  2.138e+00  1.870e+00  
 CG70   -1.215989e+03  -1.425156e-01  5.696e-01  2.177e+00  1.905e+00  
 CG71   -1.215978e+03  1.079050e-02   7.283e-01  2.185e+00  1.933e+00  
 CG72   -1.215552e+03  4.266568e-01   5.541e-01  2.019e+00  1.833e+00  
 CG73   -1.215740e+03  -1.887151e-01  1.481e+00  2.794e+00  2.194e+00  
 CG74   -1.215773e+03  -3.246277e-02  5.190e-01  2.305e+00  1.963e+00  
 CG75   -1.215871e+03  -9.823066e-02  1.392e-01  2.277e+00  1.945e+00  
 CG76   -1.215829e+03  4.226057e-02   7.734e-02  2.000e+00  1.822e+00  
 CG77   -1.215889e+03  -6.019986e-02  1.006e-01  2.192e+00  1.902e+00  
 CG78   -1.215859e+03  3.012980e-02   7.473e-02  2.000e+00  1.843e+00  
 CG79   -1.215893e+03  -3.444072e-02  4.802e-02  2.062e+00  1.815e+00  
 CG80   -1.215930e+03  -3.665008e-02  3.875e-01  2.126e+00  1.916e+00  
 CG81   -1.215864e+03  6.581818e-02   5.401e-01  2.085e+00  1.848e+00  
 CG82   -1.215862e+03  2.089180e-03   1.057e-01  2.052e+00  1.848e+00  
 CG83   -1.215890e+03  -2.775264e-02  8.287e-02  2.228e+00  1.926e+00  
 CG84   -1.215909e+03  -1.969848e-02  6.745e-02  2.000e+00  1.833e+00  
 CG85   -1.215928e+03  -1.863076e-02  3.408e-01  2.081e+00  1.857e+00  
 CG86   -1.215950e+03  -2.231900e-02  3.586e-01  2.000e+00  1.829e+00  
 CG87   -1.215950e+03  9.332878e-05   7.004e-01  2.039e+00  1.860e+00  
 CG88   -1.215949e+03  1.027302e-03   6.320e-01  2.000e+00  1.793e+00  
 CG89   -1.215961e+03  -1.145463e-02  6.639e-01  2.000e+00  1.839e+00  
 CG90   -1.215971e+03  -1.031425e-02  7.008e-01  2.000e+00  1.796e+00  
 CG91   -1.215975e+03  -4.109771e-03  7.788e-01  2.000e+00  1.843e+00  
 CG92   -1.215891e+03  8.383088e-02   8.373e-01  2.000e+00  1.797e+00  
 CG93   -1.215962e+03  -7.095310e-02  5.787e-01  2.116e+00  1.914e+00  
 CG94   -1.216019e+03  -5.688626e-02  1.464e+00  2.201e+00  1.880e+00  
 CG95   -1.215997e+03  2.198110e-02   1.846e+00  2.026e+00  1.838e+00  
 CG96   -1.215980e+03  1.743310e-02   2.036e+00  2.064e+00  1.847e+00  
 CG97   -1.216010e+03  -3.009629e-02  1.844e+00  2.004e+00  1.821e+00  
 CG98   -1.215907e+03  1.031486e-01   2.126e+00  2.000e+00  1.815e+00  
 CG99   -1.215871e+03  3.593540e-02   1.437e+00  2.000e+00  1.823e+00  
 CG100  -1.215873e+03  -2.263318e-03  9.852e-01  2.013e+00  1.824e+00  
 CG101  -1.215820e+03  5.301257e-02   8.986e-01  2.007e+00  1.827e+00  
 CG102  -1.215854e+03  -3.413076e-02  2.724e-02  2.282e+00  1.954e+00  
 CG103  -1.215912e+03  -5.764840e-02  2.533e-01  2.323e+00  2.022e+00  
 CG104  -1.215902e+03  9.858548e-03   2.616e-01  2.000e+00  1.823e+00  
 CG105  -1.215907e+03  -5.265936e-03  1.762e-01  2.060e+00  1.824e+00  
 CG106  -1.215918e+03  -1.073380e-02  1.377e-01  2.000e+00  1.830e+00  
 CG107  -1.215942e+03  -2.439386e-02  4.535e-01  2.041e+00  1.833e+00  
 CG108  -1.215947e+03  -5.172862e-03  4.417e-01  2.159e+00  1.894e+00  
 CG109  -1.215900e+03  4.783368e-02   3.994e-01  2.000e+00  1.815e+00  
 CG110  -1.215891e+03  8.744139e-03   2.845e-01  2.085e+00  1.861e+00  
 CG111  -1.215899e+03  -8.019410e-03  2.405e-01  2.009e+00  1.833e+00  
 CG112  -1.215900e+03  -1.135422e-03  2.434e-01  2.000e+00  1.827e+00  
 CG113  -1.215911e+03  -1.120215e-02  3.466e-01  2.014e+00  1.865e+00  
 CG114  -1.215907e+03  4.632114e-03   3.848e-01  2.000e+00  1.799e+00  
 CG115  -1.215904e+03  2.564008e-03   3.454e-01  2.000e+00  1.838e+00  
 CG116  -1.215897e+03  7.565674e-03   3.151e-01  2.000e+00  1.791e+00  
 CG117  -1.215908e+03  -1.198327e-02  3.500e-01  2.053e+00  1.861e+00  
 CG118  -1.215929e+03  -2.047138e-02  4.675e-01  2.039e+00  1.806e+00  
 CG119  -1.215963e+03  -3.402952e-02  5.994e-01  2.009e+00  1.872e+00  
 CG120  -1.215964e+03  -1.188791e-03  2.292e+00  2.330e+00  1.945e+00  
 CG121  -1.215923e+03  4.116405e-02   2.092e+00  2.008e+00  1.824e+00  
 CG122  -1.215841e+03  8.167053e-02   1.692e+00  2.000e+00  1.813e+00  
 CG123  -1.215905e+03  -6.354760e-02  3.461e-01  2.386e+00  1.983e+00  
 CG124  -1.215895e+03  9.467308e-03   4.364e-01  2.000e+00  1.824e+00  
 CG125  -1.215864e+03  3.167972e-02   2.959e-01  2.004e+00  1.826e+00  
 CG126  -1.215888e+03  -2.385991e-02  1.047e-03  2.200e+00  1.924e+00  
 CG127  -1.215902e+03  -1.434696e-02  1.210e-01  3.777e+00  2.586e+00  
 CG128  -1.215888e+03  1.390991e-02   4.948e-02  2.413e+00  1.997e+00  
 CG129  -1.215889e+03  -7.895543e-04  6.699e-02  3.030e+00  2.269e+00  
 CG130  -1.215897e+03  -8.172761e-03  2.232e-02  3.234e+00  2.345e+00  
 CG131  -1.215894e+03  3.084944e-03   2.237e-02  2.000e+00  1.823e+00  
 CG132  -1.215893e+03  1.413119e-03   4.521e-03  2.370e+00  1.977e+00  
 CG133  -1.215881e+03  1.173574e-02   1.489e-01  3.122e+00  2.317e+00  
 CG134  -1.215890e+03  -9.702797e-03  6.208e-02  3.290e+00  2.453e+00  
 CG135  -1.215894e+03  -3.510051e-03  1.089e-03  2.651e+00  2.098e+00  
 CG136  -1.215894e+03  1.497473e-04   8.682e-04  2.000e+00  1.859e+00  
 CG137  -1.215894e+03  7.671494e-05   7.867e-04  2.006e+00  1.815e+00  
 CG138  -1.215894e+03  -3.854546e-04  9.488e-04  2.040e+00  1.851e+00  
 CG139  -1.215894e+03  -2.965948e-04  3.871e-03  2.117e+00  1.856e+00  
 CG140  -1.215894e+03  -5.070743e-05  4.064e-03  2.000e+00  1.823e+00  
 CG141  -1.215894e+03  8.309976e-05   4.053e-03  2.004e+00  1.821e+00  
 CG142  -1.215894e+03  1.450596e-04   2.853e-03  2.000e+00  1.824e+00  
 CG143  -1.215894e+03  1.930127e-04   1.388e-03  2.016e+00  1.832e+00  
 CG144  -1.215894e+03  -6.132383e-05  5.352e-04  2.015e+00  1.828e+00  
 CG145  -1.215894e+03  -9.569424e-05  4.649e-04  2.000e+00  1.822e+00  
 CG146  -1.215894e+03  1.716108e-04   1.003e-03  2.000e+00  1.822e+00  
 CG147  -1.215894e+03  -1.252428e-04  2.064e-04  2.076e+00  1.854e+00  
 CG148  -1.215894e+03  -4.609039e-05  3.736e-04  2.045e+00  1.841e+00  
 CG149  -1.215894e+03  4.026449e-06   5.216e-04  2.009e+00  1.839e+00  
 CG150  -1.215894e+03  -2.094541e-04  1.212e-02  2.701e+00  2.117e+00  
 CG151  -1.215894e+03  5.058321e-04   8.229e-03  2.071e+00  1.868e+00  
 CG152  -1.215894e+03  -2.368996e-04  1.830e-03  2.391e+00  1.992e+00  
 CG153  -1.215894e+03  -3.107538e-06  1.712e-03  2.000e+00  1.823e+00  
 CG154  -1.215894e+03  2.765883e-05   1.225e-03  2.000e+00  1.838e+00  
 CG155  -1.215894e+03  -1.882123e-05  9.095e-04  2.000e+00  1.793e+00  
 CG156  -1.215894e+03  1.146016e-04   7.813e-04  2.000e+00  1.842e+00  
 CG157  -1.215894e+03  -1.888082e-05  1.180e-04  2.030e+00  1.806e+00  
 CG158  -1.215894e+03  6.991966e-05   2.848e-03  2.405e+00  2.027e+00  
 CG159  -1.215894e+03  -1.883970e-04  1.063e-04  2.352e+00  1.976e+00  
 CG160  -1.215894e+03  -4.107194e-05  1.016e-03  2.126e+00  1.880e+00  
 CG161  -1.215894e+03  9.369811e-05   7.819e-04  2.000e+00  1.828e+00  
 CG162  -1.215894e+03  -3.399354e-05  2.864e-04  2.042e+00  1.838e+00  
 CG163  -1.215894e+03  4.997097e-05   2.739e-04  2.000e+00  1.838e+00  
 CG164  -1.215894e+03  -9.129080e-05  5.828e-04  2.317e+00  1.929e+00  
 CG165  -1.215894e+03  9.547857e-06   4.756e-04  2.000e+00  1.855e+00  
 CG166  -1.215894e+03  2.783931e-05   3.306e-04  2.002e+00  1.861e+00  
 CG167  -1.215894e+03  1.517749e-05   1.507e-04  2.000e+00  2.126e+00  
 CG168  -1.215894e+03  -9.092985e-06  7.676e-05  2.005e+00  2.420e+00  
 CG169  -1.215894e+03  -3.012801e-06  1.149e-04  2.000e+00  2.535e+00  
 CG170  -1.215894e+03  1.437733e-06   8.095e-05  2.000e+00  2.567e+00  
 CG171  -1.215894e+03  9.903704e-06   6.472e-05  2.000e+00  2.573e+00  
 CG172  -1.215894e+03  -1.599296e-05  5.722e-05  2.026e+00  2.237e+00  
 CG173  -1.215894e+03  2.394997e-06   5.964e-05  2.000e+00  1.746e+00  
 CG174  -1.215894e+03  -2.954681e-06  2.091e-05  2.000e+00  1.829e+00  
 CG175  -1.215894e+03  -2.010821e-06  1.892e-05  2.040e+00  1.861e+00  
 CG176  -1.215894e+03  -1.464643e-06  2.175e-05  2.008e+00  2.166e+00  
 CG177  -1.215894e+03  2.257823e-06   1.867e-05  2.000e+00  1.854e+00  
 CG178  -1.215894e+03  1.209816e-06   1.023e-05  2.002e+00  1.831e+00  
 CG179  -1.215894e+03  -3.588794e-06  3.239e-05  2.029e+00  1.840e+00  
 CG180  -1.215894e+03  -1.819191e-06  2.001e-05  2.004e+00  1.833e+00  
 CG181  -1.215894e+03  1.683898e-06   2.816e-05  2.000e+00  1.919e+00  
 CG182  -1.215894e+03  5.811697e-07   1.719e-05  2.014e+00  1.842e+00  
 CG183  -1.215894e+03  1.163325e-06   1.445e-05  2.000e+00  1.940e+00  
 CG184  -1.215894e+03  -1.532131e-06  2.709e-06  2.054e+00  2.006e+00  
 CG185  -1.215894e+03  8.868747e-07   2.373e-05  2.186e+00  1.908e+00  
 CG186  -1.215894e+03  -1.304227e-06  5.099e-06  2.138e+00  1.885e+00  
 CG187  -1.215894e+03  -8.925107e-08  3.846e-06  2.000e+00  1.834e+00  
 CG188  -1.215894e+03  5.238426e-07   1.754e-06  2.077e+00  1.858e+00  
 CG189  -1.215894e+03  -4.876194e-07  3.700e-06  2.238e+00  2.035e+00  
 CG190  -1.215894e+03  1.109286e-05   8.661e-07  2.030e+00  1.814e+00  
 ><><><><><><><><><><><><><><><><><><><><><><
 TOTAL-STRESS (KBAR):
 ><><><><><><><><><><><><><><><><><><><><><><
 -1.103e+01     3.761e-04      1.512e-03      
 3.761e-04      -1.103e+01     8.732e-04      
 1.512e-03      8.732e-04      4.077e+01      
 ETOT DIFF (eV)       : 1.225e-02
 LARGEST GRAD (eV/A)  : 6.597e-02
 -------------------------------------------
 RELAX CELL : 1
 RELAX IONS : 3 (in total: 3)
 -------------------------------------------
 ITER   ETOT(eV)       EDIFF(eV)      DRHO2      CG_ITER    TIME(S)    
 CG1    8.382248e+02   0.000000e+00   8.229e+02  5.121e+01  2.248e+01  
 CG2    -2.682266e+03  -3.520491e+03  1.106e+04  2.306e+01  1.055e+01  
 CG3    -1.108680e+03  1.573586e+03   7.028e+03  9.929e+00  5.147e+00  
 CG4    -1.100059e+03  8.621746e+00   1.520e+03  8.022e+00  4.395e+00  
 CG5    -1.167802e+03  -6.774338e+01  1.307e+02  5.146e+00  3.193e+00  
 CG6    -1.196241e+03  -2.843928e+01  1.216e+03  4.599e+00  2.974e+00  
 CG7    -1.201816e+03  -5.575037e+00  2.880e+02  2.769e+00  2.201e+00  
 CG8    -1.205972e+03  -4.155203e+00  1.629e+02  2.125e+00  1.887e+00  
 CG9    -1.206755e+03  -7.831974e-01  1.406e+02  2.013e+00  1.842e+00  
 CG10   -1.209048e+03  -2.293094e+00  1.183e+02  2.026e+00  1.833e+00  
 CG11   -1.209647e+03  -5.996280e-01  1.108e+02  2.012e+00  1.843e+00  
 CG12   -1.211527e+03  -1.879643e+00  9.297e+01  2.047e+00  1.865e+00  
 CG13   -1.213513e+03  -1.985834e+00  8.622e+01  2.014e+00  1.818e+00  
 CG14   -1.216990e+03  -3.477304e+00  8.773e+01  2.002e+00  2.452e+00  
 CG15   -1.221722e+03  -4.731902e+00  9.942e+01  2.000e+00  2.262e+00  
 CG16   -1.221749e+03  -2.633677e-02  1.295e+02  2.000e+00  1.910e+00  
 CG17   -1.218137e+03  3.611518e+00   1.239e+02  2.004e+00  1.803e+00  
 CG18   -1.212795e+03  5.342085e+00   1.009e+02  2.000e+00  1.850e+00  
 CG19   -1.213801e+03  -1.006159e+00  5.837e+01  2.060e+00  1.821e+00  
 CG20   -1.214278e+03  -4.765310e-01  5.111e+01  2.009e+00  1.873e+00  
 CG21   -1.212369e+03  1.908544e+00   4.683e+01  2.006e+00  1.818e+00  
 CG22   -1.211539e+03  8.299411e-01   2.904e+01  2.014e+00  1.870e+00  
 CG23   -1.210377e+03  1.162228e+00   2.118e+01  2.000e+00  1.814e+00  
 CG24   -1.211976e+03  -1.599154e+00  8.323e+00  2.027e+00  1.904e+00  
 CG25   -1.212275e+03  -2.992804e-01  6.264e+00  2.000e+00  1.822e+00  
 CG26   -1.212879e+03  -6.041782e-01  1.608e+00  2.020e+00  1.841e+00  
 CG27   -1.219011e+03  -6.131515e+00  6.484e+01  3.337e+00  2.423e+00  
 CG28   -1.219571e+03  -5.595057e-01  6.349e+01  2.000e+00  1.837e+00  
 CG29   -1.223635e+03  -4.064910e+00  6.550e+01  2.010e+00  1.839e+00  
 CG30   -1.227217e+03  -3.581737e+00  1.082e+02  2.135e+00  1.908e+00  
 CG31   -1.228792e+03  -1.575287e+00  1.441e+02  2.087e+00  1.848e+00  
 CG32   -1.227062e+03  1.730169e+00   1.691e+02  2.056e+00  1.897e+00  
 CG33   -1.225988e+03  1.074095e+00   1.545e+02  2.000e+00  1.852e+00  
 CG34   -1.222614e+03  3.374134e+00   1.447e+02  2.000e+00  1.856e+00  
 CG35   -1.225734e+03  -3.120295e+00  1.172e+02  2.000e+00  1.841e+00  
 CG36   -1.224814e+03  9.199448e-01   1.612e+02  2.077e+00  1.864e+00  
 CG37   -1.223646e+03  1.168362e+00   1.517e+02  2.008e+00  1.838e+00  
 CG38   -1.223364e+03  2.820688e-01   1.375e+02  2.006e+00  1.855e+00  
 CG39   -1.227261e+03  -3.897266e+00  1.358e+02  2.007e+00  1.866e+00  
 CG40   -1.223150e+03  4.111721e+00   1.775e+02  2.047e+00  1.855e+00  
 CG41   -1.222606e+03  5.434657e-01   1.447e+02  2.002e+00  1.852e+00  
 CG42   -1.218697e+03  3.908646e+00   1.349e+02  2.000e+00  1.810e+00  
 CG43   -1.215310e+03  3.387680e+00   1.002e+02  2.022e+00  1.885e+00  
 CG44   -1.216092e+03  -7.826995e-01  4.663e+01  2.162e+00  1.879e+00  
 CG45   -1.215767e+03  3.249682e-01   4.166e+01  2.000e+00  1.835e+00  
 CG46   -1.208443e+03  7.324373e+00   3.685e+01  2.000e+00  1.811e+00  
 CG47   -1.212125e+03  -3.681549e+00  5.505e+01  3.644e+00  2.594e+00  
 CG48   -1.214501e+03  -2.376597e+00  3.670e+00  2.433e+00  2.030e+00  
 CG49   -1.214984e+03  -4.829858e-01  3.697e-01  2.016e+00  1.912e+00  
 CG50   -1.215716e+03  -7.318034e-01  4.796e+00  3.009e+00  2.267e+00  
 CG51   -1.215511e+03  2.051361e-01   3.771e+00  2.004e+00  1.811e+00  
 CG52   -1.215415e+03  9.611788e-02   2.039e+00  2.049e+00  2.007e+00  
 CG53   -1.215639e+03  -2.244524e-01  7.781e-01  2.211e+00  2.507e+00  
 CG54   -1.215737e+03  -9.825275e-02  3.155e-01  2.001e+00  2.537e+00  
 CG55   -1.215617e+03  1.200777e-01   3.262e-01  2.000e+00  2.623e+00  
 CG56   -1.215652e+03  -3.439273e-02  1.143e-01  2.034e+00  2.691e+00  
 CG57   -1.215871e+03  -2.190776e-01  1.531e+00  2.542e+00  2.908e+00  
 CG58   -1.215849e+03  2.191850e-02   1.588e+00  2.017e+00  2.563e+00  
 CG59   -1.215821e+03  2.763059e-02   1.328e+00  2.007e+00  2.598e+00  
 CG60   -1.215824e+03  -2.843072e-03  8.575e-01  2.000e+00  2.283e+00  
 CG61   -1.215749e+03  7.520770e-02   6.198e-01  2.000e+00  1.930e+00  
 CG62   -1.215799e+03  -5.045579e-02  1.052e-02  2.116e+00  1.840e+00  
 CG63   -1.215902e+03  -1.029804e-01  2.077e-01  3.245e+00  2.388e+00  
 CG64   -1.215902e+03  4.825727e-04   1.418e-01  2.009e+00  1.847e+00  
 CG65   -1.215900e+03  1.519652e-03   1.092e-01  2.000e+00  1.799e+00  
 CG66   -1.215892e+03  8.081409e-03   7.148e-02  2.000e+00  1.857e+00  
 CG67   -1.215885e+03  7.727697e-03   9.067e-02  2.371e+00  2.175e+00  
 CG68   -1.215915e+03  -3.012440e-02  3.499e-01  2.437e+00  2.088e+00  
 CG69   -1.215930e+03  -1.554749e-02  2.811e-01  2.009e+00  1.856e+00  
 CG70   -1.215925e+03  5.090181e-03   4.442e-01  2.005e+00  1.840e+00  
 CG71   -1.215879e+03  4.589075e-02   3.852e-01  2.000e+00  1.833e+00  
 CG72   -1.215899e+03  -1.980914e-02  3.381e-02  2.375e+00  1.991e+00  
 CG73   -1.215899e+03  4.414040e-04   1.391e-02  2.039e+00  1.855e+00  
 CG74   -1.215901e+03  -2.545302e-03  8.817e-03  2.010e+00  1.866e+00  
 CG75   -1.215899e+03  1.746258e-03   1.552e-02  2.000e+00  1.950e+00  
 CG76   -1.215900e+03  -1.004516e-03  2.498e-03  2.015e+00  1.842e+00  
 CG77   -1.215897e+03  3.795153e-03   6.978e-02  2.426e+00  2.022e+00  
 CG78   -1.215903e+03  -6.366928e-03  1.510e-03  2.356e+00  2.008e+00  
 CG79   -1.215910e+03  -7.184128e-03  5.316e-02  2.291e+00  1.987e+00  
 CG80   -1.215910e+03  -2.622634e-04  4.709e-01  2.531e+00  2.096e+00  
 CG81   -1.215904e+03  6.642869e-03   4.130e-01  2.022e+00  1.846e+00  
 CG82   -1.215936e+03  -3.171332e-02  1.626e-01  2.641e+00  2.291e+00  
 CG83   -1.215865e+03  7.049725e-02   1.701e+00  2.798e+00  2.353e+00  
 CG84   -1.215904e+03  -3.937738e-02  8.700e-02  3.429e+00  2.454e+00  
 CG85   -1.215895e+03  9.686351e-03   3.008e-01  3.030e+00  2.427e+00  
 CG86   -1.215901e+03  -5.812518e-03  3.640e-02  3.211e+00  2.377e+00  
 CG87   -1.215901e+03  -2.890655e-04  1.269e-02  2.478e+00  2.043e+00  
 CG88   -1.215903e+03  -1.856982e-03  5.584e-03  2.357e+00  1.962e+00  
 CG89   -1.215903e+03  5.107647e-05   9.174e-03  2.227e+00  1.920e+00  
 CG90   -1.215903e+03  -3.559306e-06  1.444e-02  2.342e+00  1.967e+00  
 CG91   -1.215901e+03  1.136513e-03   1.310e-02  2.038e+00  1.844e+00  
 CG92   -1.215902e+03  -7.340337e-04  2.675e-03  2.159e+00  1.907e+00  
 CG93   -1.215902e+03  -6.777057e-05  2.998e-03  2.000e+00  1.790e+00  
 CG94   -1.215902e+03  4.009319e-04   3.328e-03  2.000e+00  1.843e+00  
 CG95   -1.215902e+03  -1.836284e-04  6.207e-04  2.013e+00  1.901e+00  
 CG96   -1.215903e+03  -6.726226e-04  1.773e-03  2.188e+00  1.940e+00  
 CG97   -1.215903e+03  3.048865e-05   2.294e-03  2.000e+00  1.886e+00  
 CG98   -1.215903e+03  2.149088e-04   1.579e-03  2.000e+00  1.930e+00  
 CG99   -1.215903e+03  -1.457420e-04  3.538e-05  2.006e+00  1.867e+00  
 CG100  -1.215903e+03  -1.097300e-05  2.406e-03  2.811e+00  2.168e+00  
 CG101  -1.215903e+03  -8.237917e-05  8.028e-05  2.597e+00  2.076e+00  
 CG102  -1.215903e+03  1.666387e-05   1.080e-04  2.021e+00  1.861e+00  
 CG103  -1.215903e+03  -5.313638e-06  1.110e-03  2.610e+00  2.081e+00  
 CG104  -1.215903e+03  3.194901e-05   4.626e-04  2.088e+00  1.863e+00  
 CG105  -1.215903e+03  -3.542905e-05  7.277e-05  2.509e+00  2.160e+00  
 CG106  -1.215903e+03  7.414390e-06   4.636e-05  2.007e+00  1.837e+00  
 CG107  -1.215903e+03  -1.808736e-05  1.995e-05  2.076e+00  1.944e+00  
 CG108  -1.215903e+03  9.715593e-07   2.558e-05  2.067e+00  1.899e+00  
 CG109  -1.215903e+03  -1.067963e-07  1.155e-05  2.000e+00  1.903e+00  
 CG110  -1.215903e+03  -1.048046e-07  8.875e-06  2.020e+00  1.936e+00  
 CG111  -1.215903e+03  1.099708e-05   8.950e-07  2.012e+00  1.827e+00  
 ><><><><><><><><><><><><><><><><><><><><><><
 TOTAL-STRESS (KBAR):
 ><><><><><><><><><><><><><><><><><><><><><><
 -1.144e+01     -4.788e-04     -3.053e-04     
 -4.788e-04     -1.144e+01     -1.762e-04     
 -3.053e-04     -1.762e-04     4.118e+01      
 ETOT DIFF (eV)       : -8.576e-03
 LARGEST GRAD (eV/A)  : 2.463e-02
 -------------------------------------------
 RELAX CELL : 1
 RELAX IONS : 4 (in total: 4)
 -------------------------------------------
 ITER   ETOT(eV)       EDIFF(eV)      DRHO2      CG_ITER    TIME(S)    
 CG1    -8.458299e+02  0.000000e+00   1.478e+02  5.020e+01  2.252e+01  
 CG2    -9.888916e+02  -1.430617e+02  9.127e+03  1.491e+01  7.175e+00  
 CG3    -1.017670e+03  -2.877819e+01  2.241e+03  8.334e+00  4.542e+00  
 CG4    -1.175881e+03  -1.582107e+02  2.574e+02  6.780e+00  3.893e+00  
 CG5    -1.215557e+03  -3.967642e+01  5.752e+01  3.232e+00  2.450e+00  
 CG6    -1.214091e+03  1.465651e+00   5.669e+01  2.000e+00  1.872e+00  
 CG7    -1.213529e+03  5.626315e-01   4.496e+01  2.009e+00  1.826e+00  
 CG8    -1.213953e+03  -4.241028e-01  3.375e+01  2.010e+00  1.893e+00  
 CG9    -1.214025e+03  -7.216100e-02  3.156e+01  2.010e+00  1.857e+00  
 CG10   -1.214080e+03  -5.553674e-02  2.715e+01  2.032e+00  1.842e+00  
 CG11   -1.213770e+03  3.104713e-01   2.174e+01  2.026e+00  1.826e+00  
 CG12   -1.213186e+03  5.840276e-01   1.564e+01  2.018e+00  1.837e+00  
 CG13   -1.212100e+03  1.086070e+00   9.680e+00  2.022e+00  1.839e+00  
 CG14   -1.213014e+03  -9.142441e-01  1.385e+00  2.053e+00  1.844e+00  
 CG15   -1.216801e+03  -3.786523e+00  3.565e+01  2.979e+00  2.375e+00  
 CG16   -1.216862e+03  -6.137224e-02  3.415e+01  2.004e+00  1.842e+00  
 CG17   -1.216994e+03  -1.316894e-01  3.346e+01  2.017e+00  1.814e+00  
 CG18   -1.217050e+03  -5.603202e-02  3.375e+01  2.008e+00  1.847e+00  
 CG19   -1.217104e+03  -5.441738e-02  3.370e+01  2.000e+00  1.814e+00  
 CG20   -1.216176e+03  9.277747e-01   3.374e+01  2.000e+00  1.881e+00  
 CG21   -1.216276e+03  -9.986407e-02  2.395e+01  2.000e+00  1.805e+00  
 CG22   -1.216028e+03  2.479437e-01   2.291e+01  2.000e+00  1.885e+00  
 CG23   -1.216234e+03  -2.061047e-01  1.857e+01  2.000e+00  1.810e+00  
 CG24   -1.216169e+03  6.509447e-02   1.951e+01  2.004e+00  1.832e+00  
 CG25   -1.215388e+03  7.808757e-01   1.731e+01  2.000e+00  1.811e+00  
 CG26   -1.215194e+03  1.944497e-01   1.092e+01  2.000e+00  1.827e+00  
 CG27   -1.215110e+03  8.412735e-02   7.518e+00  2.002e+00  1.808e+00  
 CG28   -1.215219e+03  -1.094179e-01  5.338e+00  2.000e+00  1.863e+00  
 CG29   -1.215134e+03  8.563263e-02   5.251e+00  2.000e+00  1.878e+00  
 CG30   -1.215045e+03  8.888061e-02   4.145e+00  2.000e+00  1.841e+00  
 CG31   -1.215156e+03  -1.109463e-01  2.051e+00  2.000e+00  1.929e+00  
 CG32   -1.215251e+03  -9.531352e-02  1.984e+00  2.000e+00  1.898e+00  
 CG33   -1.215310e+03  -5.877209e-02  1.985e+00  2.000e+00  1.897e+00  
 CG34   -1.215006e+03  3.042374e-01   1.927e+00  2.000e+00  1.927e+00  
 CG35   -1.215570e+03  -5.644754e-01  7.186e-01  2.074e+00  1.861e+00  
 CG36   -1.215738e+03  -1.681103e-01  1.443e+00  2.077e+00  1.864e+00  
 CG37   -1.215759e+03  -2.047294e-02  1.452e+00  2.000e+00  1.859e+00  
 CG38   -1.215793e+03  -3.408810e-02  1.472e+00  2.000e+00  1.840e+00  
 CG39   -1.215838e+03  -4.578755e-02  1.641e+00  2.000e+00  1.847e+00  
 CG40   -1.215771e+03  6.758421e-02   1.837e+00  2.000e+00  1.919e+00  
 CG41   -1.215762e+03  9.357384e-03   1.320e+00  2.000e+00  1.813e+00  
 CG42   -1.215798e+03  -3.604155e-02  1.027e+00  2.000e+00  1.870e+00  
 CG43   -1.215807e+03  -9.676235e-03  1.252e+00  2.000e+00  1.813e+00  
 CG44   -1.215820e+03  -1.257375e-02  1.260e+00  2.000e+00  1.850e+00  
 CG45   -1.215787e+03  3.248753e-02   1.396e+00  2.000e+00  1.813e+00  
 CG46   -1.215758e+03  2.913690e-02   1.176e+00  2.000e+00  1.857e+00  
 CG47   -1.215756e+03  2.345886e-03   9.693e-01  2.000e+00  1.831e+00  
 CG48   -1.215762e+03  -6.058522e-03  8.596e-01  2.000e+00  1.848e+00  
 CG49   -1.215731e+03  3.061546e-02   8.291e-01  2.000e+00  1.836e+00  
 CG50   -1.215689e+03  4.280632e-02   5.006e-01  2.000e+00  1.834e+00  
 CG51   -1.215721e+03  -3.213555e-02  1.039e-01  2.004e+00  1.836e+00  
 CG52   -1.215791e+03  -7.025145e-02  1.998e-03  2.182e+00  1.909e+00  
 CG53   -1.215900e+03  -1.087160e-01  1.620e-01  3.878e+00  2.683e+00  
 CG54   -1.215932e+03  -3.269285e-02  1.582e-01  2.115e+00  1.881e+00  
 CG55   -1.215912e+03  1.983631e-02   1.825e+00  3.129e+00  2.340e+00  
 CG56   -1.215925e+03  -1.272140e-02  7.407e-01  2.645e+00  2.123e+00  
 CG57   -1.215945e+03  -1.934114e-02  7.504e-01  2.018e+00  1.819e+00  
 CG58   -1.215957e+03  -1.295794e-02  1.299e+00  2.419e+00  2.040e+00  
 CG59   -1.215951e+03  6.352323e-03   1.572e+00  2.517e+00  2.057e+00  
 CG60   -1.215925e+03  2.629475e-02   1.439e+00  2.288e+00  1.950e+00  
 CG61   -1.215932e+03  -6.890285e-03  8.295e-01  2.874e+00  2.296e+00  
 CG62   -1.215937e+03  -5.301736e-03  9.071e-01  2.286e+00  1.983e+00  
 CG63   -1.215932e+03  5.008192e-03   9.397e-01  2.000e+00  1.804e+00  
 CG64   -1.215934e+03  -2.440946e-03  8.859e-01  2.000e+00  1.867e+00  
 CG65   -1.215966e+03  -3.137925e-02  8.956e-01  2.000e+00  1.995e+00  
 CG66   -1.215948e+03  1.801882e-02   1.632e+00  2.544e+00  2.144e+00  
 CG67   -1.215950e+03  -1.812084e-03  1.336e+00  2.346e+00  2.129e+00  
 CG68   -1.215926e+03  2.337990e-02   1.367e+00  2.096e+00  1.870e+00  
 CG69   -1.215920e+03  6.452144e-03   9.006e-01  2.520e+00  2.055e+00  
 CG70   -1.215931e+03  -1.131793e-02  7.161e-01  2.186e+00  1.999e+00  
 CG71   -1.215920e+03  1.138849e-02   7.897e-01  2.000e+00  1.811e+00  
 CG72   -1.215890e+03  2.929264e-02   6.905e-01  2.043e+00  1.847e+00  
 CG73   -1.215922e+03  -3.106558e-02  2.476e-01  3.573e+00  2.558e+00  
 CG74   -1.215921e+03  6.540668e-04   3.452e-01  2.625e+00  2.144e+00  
 CG75   -1.215882e+03  3.858739e-02   2.118e-01  2.278e+00  1.971e+00  
 CG76   -1.215904e+03  -2.186736e-02  8.700e-03  3.480e+00  2.603e+00  
 CG77   -1.215901e+03  2.830467e-03   2.134e-02  2.516e+00  2.200e+00  
 CG78   -1.215898e+03  2.837690e-03   2.214e-02  2.634e+00  2.241e+00  
 CG79   -1.215901e+03  -2.755325e-03  2.788e-01  2.848e+00  2.259e+00  
 CG80   -1.215902e+03  -9.123752e-04  4.164e-02  2.658e+00  2.130e+00  
 CG81   -1.215903e+03  -1.075258e-03  6.599e-03  2.496e+00  2.069e+00  
 CG82   -1.215904e+03  -3.041368e-04  8.396e-03  2.185e+00  2.211e+00  
 CG83   -1.215904e+03  -8.890806e-04  1.145e-03  2.056e+00  1.883e+00  
 CG84   -1.215904e+03  5.539990e-05   1.009e-03  2.065e+00  1.904e+00  
 CG85   -1.215905e+03  -2.676874e-04  3.272e-03  2.021e+00  1.837e+00  
 CG86   -1.215904e+03  2.699553e-04   7.169e-03  2.036e+00  1.935e+00  
 CG87   -1.215904e+03  4.000615e-04   2.880e-03  2.000e+00  1.973e+00  
 CG88   -1.215904e+03  -5.148413e-04  8.285e-03  2.378e+00  2.062e+00  
 CG89   -1.215904e+03  5.015556e-04   4.480e-03  2.000e+00  1.871e+00  
 CG90   -1.215904e+03  -3.351743e-04  6.474e-05  2.145e+00  2.399e+00  
 CG91   -1.215905e+03  -3.651971e-04  1.294e-03  2.740e+00  2.189e+00  
 CG92   -1.215905e+03  3.886100e-05   1.683e-03  2.000e+00  1.930e+00  
 CG93   -1.215905e+03  -1.668493e-06  1.213e-03  2.000e+00  1.877e+00  
 CG94   -1.215905e+03  1.334591e-05   1.122e-03  2.000e+00  1.826e+00  
 CG95   -1.215905e+03  4.295940e-06   9.908e-04  2.000e+00  1.844e+00  
 CG96   -1.215905e+03  7.538208e-06   1.033e-03  2.000e+00  1.816e+00  
 CG97   -1.215905e+03  -4.078399e-05  1.001e-03  2.000e+00  1.830e+00  
 CG98   -1.215905e+03  -3.253289e-07  1.483e-03  2.000e+00  1.828e+00  
 CG99   -1.215905e+03  1.694243e-05   1.416e-03  2.000e+00  1.830e+00  
 CG100  -1.215905e+03  6.666091e-05   1.348e-03  2.013e+00  1.873e+00  
 CG101  -1.215905e+03  1.132486e-05   7.584e-04  2.010e+00  1.836e+00  
 CG102  -1.215905e+03  -2.666916e-05  1.905e-04  2.172e+00  1.907e+00  
 CG103  -1.215905e+03  -1.106234e-06  1.817e-04  2.000e+00  1.834e+00  
 CG104  -1.215905e+03  -7.452587e-06  1.248e-04  2.000e+00  1.843e+00  
 CG105  -1.215905e+03  1.514971e-06   1.782e-04  2.000e+00  1.813e+00  
 CG106  -1.215905e+03  -5.658500e-06  6.631e-05  2.011e+00  1.849e+00  
 CG107  -1.215905e+03  -1.089882e-06  6.025e-05  2.000e+00  1.798e+00  
 CG108  -1.215905e+03  -3.369743e-06  4.131e-05  2.000e+00  1.853e+00  
 CG109  -1.215905e+03  -1.402017e-06  4.098e-05  2.004e+00  1.799e+00  
 CG110  -1.215905e+03  -4.872725e-06  4.017e-05  2.000e+00  1.865e+00  
 CG111  -1.215905e+03  1.178481e-05   2.130e-03  2.445e+00  2.019e+00  
 CG112  -1.215905e+03  -3.131713e-06  1.136e-03  2.079e+00  1.886e+00  
 CG113  -1.215905e+03  2.539378e-05   1.013e-03  2.000e+00  1.851e+00  
 CG114  -1.215905e+03  1.608290e-05   6.493e-04  2.100e+00  1.874e+00  
 CG115  -1.215905e+03  -5.281556e-06  4.270e-04  2.056e+00  1.868e+00  
 CG116  -1.215905e+03  -2.435409e-06  3.762e-04  2.000e+00  1.808e+00  
 CG117  -1.215905e+03  -2.850386e-06  3.382e-04  2.000e+00  1.860e+00  
 CG118  -1.215905e+03  -1.588883e-06  3.126e-04  2.000e+00  1.810e+00  
 CG119  -1.215905e+03  -2.265968e-06  2.900e-04  2.000e+00  1.881e+00  
 CG120  -1.215905e+03  -4.125732e-06  2.624e-04  2.000e+00  1.809e+00  
 CG121  -1.215905e+03  5.708323e-06   2.950e-04  2.000e+00  1.852e+00  
 CG122  -1.215905e+03  3.797532e-06   1.867e-04  2.000e+00  1.810e+00  
 CG123  -1.215905e+03  -1.082427e-05  4.662e-05  2.013e+00  1.843e+00  
 CG124  -1.215905e+03  -1.664477e-06  4.669e-05  2.000e+00  1.809e+00  
 CG125  -1.215905e+03  -3.840143e-07  4.256e-05  2.000e+00  1.824e+00  
 CG126  -1.215905e+03  -2.798792e-06  2.634e-05  2.000e+00  1.871e+00  
 CG127  -1.215905e+03  3.180298e-06   4.389e-05  2.000e+00  1.827e+00  
 CG128  -1.215905e+03  -1.649454e-05  1.745e-05  2.098e+00  1.863e+00  
 CG129  -1.215905e+03  -8.316012e-06  8.549e-05  2.095e+00  1.872e+00  
 CG130  -1.215905e+03  -9.493448e-06  1.484e-04  2.020e+00  1.898e+00  
 CG131  -1.215905e+03  -3.859072e-06  3.503e-04  2.079e+00  1.829e+00  
 CG132  -1.215905e+03  7.647627e-07   3.418e-04  2.000e+00  1.941e+00  
 CG133  -1.215905e+03  -1.880933e-06  3.385e-04  2.000e+00  1.814e+00  
 CG134  -1.215905e+03  1.280996e-05   3.591e-04  2.000e+00  1.828e+00  
 CG135  -1.215905e+03  -1.675301e-06  2.761e-04  2.000e+00  1.873e+00  
 CG136  -1.215905e+03  -3.731539e-07  2.907e-04  2.000e+00  1.851e+00  
 CG137  -1.215905e+03  9.860458e-07   2.936e-04  2.000e+00  1.821e+00  
 CG138  -1.215905e+03  -6.531746e-06  2.846e-04  2.000e+00  1.835e+00  
 CG139  -1.215905e+03  2.404684e-07   3.345e-04  2.000e+00  1.859e+00  
 CG140  -1.215905e+03  8.274596e-06   3.295e-04  2.000e+00  1.989e+00  
 CG141  -1.215905e+03  -1.182282e-05  2.757e-04  2.000e+00  1.884e+00  
 CG142  -1.215905e+03  1.091150e-05   3.686e-04  2.000e+00  1.793e+00  
 CG143  -1.215905e+03  7.455628e-06   2.910e-04  2.000e+00  1.861e+00  
 CG144  -1.215905e+03  -7.528623e-07  2.059e-04  2.000e+00  1.808e+00  
 CG145  -1.215905e+03  3.345086e-06   2.018e-04  2.000e+00  1.849e+00  
 CG146  -1.215905e+03  -2.644187e-07  1.754e-04  2.000e+00  1.809e+00  
 CG147  -1.215905e+03  -4.521743e-06  1.822e-04  2.000e+00  1.839e+00  
 CG148  -1.215905e+03  1.717628e-05   2.183e-04  2.000e+00  1.821e+00  
 CG149  -1.215905e+03  -1.159424e-05  1.722e-05  2.105e+00  1.867e+00  
 CG150  -1.215905e+03  -1.595551e-06  3.936e-05  2.000e+00  1.821e+00  
 CG151  -1.215905e+03  4.080551e-06   4.011e-05  2.009e+00  1.829e+00  
 CG152  -1.215905e+03  -1.390592e-06  5.125e-06  2.000e+00  1.825e+00  
 CG153  -1.215905e+03  -2.649197e-06  2.429e-06  2.163e+00  1.894e+00  
 CG154  -1.215905e+03  8.670860e-06   1.166e-04  2.504e+00  2.067e+00  
 CG155  -1.215905e+03  -8.398586e-06  2.822e-05  2.625e+00  2.086e+00  
 CG156  -1.215905e+03  -8.194175e-06  7.653e-05  2.569e+00  2.066e+00  
 CG157  -1.215905e+03  2.690212e-06   1.063e-04  2.013e+00  1.862e+00  
 CG158  -1.215905e+03  -1.679842e-06  8.935e-05  2.000e+00  1.806e+00  
 CG159  -1.215905e+03  3.354703e-07   9.914e-05  2.000e+00  1.838e+00  
 CG160  -1.215905e+03  1.929543e-06   1.052e-04  2.000e+00  1.815e+00  
 CG161  -1.215905e+03  -1.484490e-06  9.299e-05  2.000e+00  1.842e+00  
 CG162  -1.215905e+03  2.420377e-06   9.895e-05  2.000e+00  1.829e+00  
 CG163  -1.215905e+03  3.136389e-06   8.380e-05  2.000e+00  1.827e+00  
 CG164  -1.215905e+03  2.830314e-08   6.473e-05  2.002e+00  1.843e+00  
 CG165  -1.215905e+03  1.774478e-07   6.083e-05  2.000e+00  1.872e+00  
 CG166  -1.215905e+03  3.184043e-07   3.392e-05  2.038e+00  1.855e+00  
 CG167  -1.215905e+03  -2.606201e-06  3.308e-05  2.026e+00  2.001e+00  
 CG168  -1.215905e+03  -2.343322e-06  5.569e-05  2.000e+00  1.998e+00  
 CG169  -1.215905e+03  3.589996e-07   1.005e-04  2.026e+00  1.892e+00  
 CG170  -1.215905e+03  1.527536e-06   8.683e-05  2.000e+00  1.847e+00  
 CG171  -1.215905e+03  5.730129e-07   6.807e-05  2.000e+00  1.923e+00  
 CG172  -1.215905e+03  3.582544e-06   6.138e-05  2.000e+00  1.922e+00  
 CG173  -1.215905e+03  -1.271088e-06  8.507e-06  2.132e+00  1.923e+00  
 CG174  -1.215905e+03  1.798781e-06   6.760e-06  2.000e+00  1.856e+00  
 CG175  -1.215905e+03  -8.932119e-07  2.375e-05  2.375e+00  2.034e+00  
 CG176  -1.215905e+03  3.106650e-07   7.864e-06  2.004e+00  1.828e+00  
 CG177  -1.215905e+03  8.401463e-06   7.059e-07  2.083e+00  1.857e+00  
 ><><><><><><><><><><><><><><><><><><><><><><
 TOTAL-STRESS (KBAR):
 ><><><><><><><><><><><><><><><><><><><><><><
 -1.153e+01     -5.473e-05     -9.643e-05     
 -5.473e-05     -1.153e+01     -5.567e-05     
 -9.643e-05     -5.567e-05     4.126e+01      
 ETOT DIFF (eV)       : -1.834e-03
 LARGEST GRAD (eV/A)  : 2.235e-02
 -------------------------------------------
 RELAX CELL : 1
 RELAX IONS : 5 (in total: 5)
 -------------------------------------------
 ITER   ETOT(eV)       EDIFF(eV)      DRHO2      CG_ITER    TIME(S)    
 CG1    2.370704e+02   0.000000e+00   5.817e+02  5.090e+01  2.229e+01  
 CG2    -2.145224e+03  -2.382294e+03  1.072e+04  2.095e+01  9.984e+00  
 CG3    -9.425122e+02  1.202712e+03   6.485e+03  9.257e+00  5.052e+00  
 CG4    -1.219782e+03  -2.772699e+02  2.300e+02  8.537e+00  4.961e+00  
 CG5    -1.239216e+03  -1.943420e+01  2.648e+02  2.225e+00  2.407e+00  
 CG6    -1.242414e+03  -3.198104e+00  4.010e+02  2.052e+00  1.985e+00  
 CG7    -1.235364e+03  7.050214e+00   4.832e+02  2.096e+00  1.922e+00  
 CG8    -1.220380e+03  1.498462e+01   4.017e+02  2.000e+00  1.818e+00  
 CG9    -1.208918e+03  1.146151e+01   2.544e+02  2.020e+00  1.938e+00  
 CG10   -1.212526e+03  -3.607978e+00  1.363e+02  2.062e+00  1.858e+00  
 CG11   -1.210373e+03  2.153020e+00   1.309e+02  2.007e+00  1.837e+00  
 CG12   -1.204383e+03  5.990346e+00   1.102e+02  2.000e+00  1.835e+00  
 CG13   -1.207115e+03  -2.732440e+00  5.361e+01  2.059e+00  1.866e+00  
 CG14   -1.208280e+03  -1.165381e+00  3.973e+01  2.029e+00  1.846e+00  
 CG15   -1.209728e+03  -1.447886e+00  2.564e+01  2.032e+00  1.847e+00  
 CG16   -1.210775e+03  -1.046161e+00  1.910e+01  2.013e+00  1.858e+00  
 CG17   -1.211444e+03  -6.699481e-01  1.415e+01  2.008e+00  1.801e+00  
 CG18   -1.211509e+03  -6.425013e-02  1.146e+01  2.000e+00  1.853e+00  
 CG19   -1.212334e+03  -8.257033e-01  8.498e+00  2.005e+00  1.836e+00  
 CG20   -1.214028e+03  -1.693468e+00  8.324e+00  2.000e+00  1.865e+00  
 CG21   -1.212312e+03  1.715515e+00   1.402e+01  2.004e+00  1.813e+00  
 CG22   -1.213562e+03  -1.249503e+00  1.828e+00  2.017e+00  1.855e+00  
 CG23   -1.215039e+03  -1.476818e+00  3.498e+00  2.372e+00  1.988e+00  
 CG24   -1.215593e+03  -5.538388e-01  1.095e+00  2.000e+00  1.873e+00  
 CG25   -1.215898e+03  -3.056367e-01  4.101e+00  2.031e+00  1.865e+00  
 CG26   -1.216493e+03  -5.951838e-01  4.634e+00  2.000e+00  1.821e+00  
 CG27   -1.217269e+03  -7.752635e-01  1.746e+01  2.134e+00  1.961e+00  
 CG28   -1.218083e+03  -8.147464e-01  1.882e+01  2.000e+00  1.844e+00  
 CG29   -1.218594e+03  -5.107697e-01  3.152e+01  2.070e+00  1.881e+00  
 CG30   -1.219068e+03  -4.738054e-01  3.372e+01  2.012e+00  1.917e+00  
 CG31   -1.218157e+03  9.114471e-01   4.158e+01  2.125e+00  2.051e+00  
 CG32   -1.218251e+03  -9.456295e-02  3.904e+01  2.018e+00  1.924e+00  
 CG33   -1.218129e+03  1.215870e-01   4.114e+01  2.028e+00  1.873e+00  
 CG34   -1.217911e+03  2.184275e-01   3.990e+01  2.000e+00  1.848e+00  
 CG35   -1.217764e+03  1.470639e-01   3.760e+01  2.000e+00  1.842e+00  
 CG36   -1.215716e+03  2.047863e+00   3.789e+01  2.004e+00  1.842e+00  
 CG37   -1.214835e+03  8.815473e-01   1.932e+01  2.047e+00  1.855e+00  
 CG38   -1.215154e+03  -3.194056e-01  7.509e+00  2.044e+00  2.020e+00  
 CG39   -1.215101e+03  5.304740e-02   6.464e+00  2.000e+00  1.917e+00  
 CG40   -1.215067e+03  3.353008e-02   4.879e+00  2.004e+00  1.813e+00  
 CG41   -1.215251e+03  -1.831813e-01  2.706e+00  2.005e+00  1.917e+00  
 CG42   -1.215353e+03  -1.020582e-01  3.002e+00  2.000e+00  1.815e+00  
 CG43   -1.215280e+03  7.247225e-02   2.809e+00  2.000e+00  1.829e+00  
 CG44   -1.215337e+03  -5.657822e-02  1.160e+00  2.000e+00  1.822e+00  
 CG45   -1.215312e+03  2.519044e-02   1.046e+00  2.000e+00  1.826e+00  
 CG46   -1.215372e+03  -6.022246e-02  5.541e-01  2.000e+00  1.835e+00  
 CG47   -1.215524e+03  -1.519220e-01  1.349e-01  2.082e+00  1.864e+00  
 CG48   -1.215879e+03  -3.553993e-01  2.471e+00  2.803e+00  2.206e+00  
 CG49   -1.215833e+03  4.568904e-02   2.055e+00  2.027e+00  1.821e+00  
 CG50   -1.215821e+03  1.227397e-02   1.398e+00  2.000e+00  1.828e+00  
 CG51   -1.215831e+03  -9.810491e-03  1.134e+00  2.000e+00  1.819e+00  
 CG52   -1.215846e+03  -1.471858e-02  1.081e+00  2.000e+00  1.828e+00  
 CG53   -1.215769e+03  7.693263e-02   1.148e+00  2.006e+00  1.824e+00  
 CG54   -1.215807e+03  -3.825771e-02  2.607e-01  2.065e+00  1.886e+00  
 CG55   -1.215837e+03  -2.960981e-02  3.882e-01  2.000e+00  1.873e+00  
 CG56   -1.215822e+03  1.481310e-02   5.907e-01  2.000e+00  1.878e+00  
 CG57   -1.215816e+03  5.892952e-03   3.709e-01  2.000e+00  1.842e+00  
 CG58   -1.215818e+03  -2.504619e-03  1.493e-01  2.000e+00  1.813e+00  
 CG59   -1.215825e+03  -6.782597e-03  1.289e-01  2.000e+00  1.944e+00  
 CG60   -1.215841e+03  -1.534900e-02  1.380e-01  2.000e+00  1.889e+00  
 CG61   -1.215823e+03  1.803700e-02   2.770e-01  2.000e+00  1.845e+00  
 CG62   -1.215836e+03  -1.328063e-02  2.739e-02  2.006e+00  1.881e+00  
 CG63   -1.215893e+03  -5.701863e-02  1.977e-01  2.400e+00  2.141e+00  
 CG64   -1.215896e+03  -2.715243e-03  1.656e-01  2.000e+00  1.916e+00  
 CG65   -1.215901e+03  -5.531916e-03  1.832e-01  2.000e+00  1.799e+00  
 CG66   -1.215894e+03  7.360912e-03   2.540e-01  2.004e+00  1.830e+00  
 CG67   -1.215898e+03  -4.388353e-03  1.750e-01  2.000e+00  1.806e+00  
 CG68   -1.215899e+03  -7.287153e-04  1.948e-01  2.000e+00  1.831e+00  
 CG69   -1.215899e+03  -5.141794e-04  1.929e-01  2.000e+00  1.819e+00  
 CG70   -1.215894e+03  5.408425e-03   2.054e-01  2.000e+00  1.831e+00  
 CG71   -1.215900e+03  -5.632320e-03  1.780e-01  2.000e+00  1.823e+00  
 CG72   -1.215897e+03  2.209463e-03   2.289e-01  2.000e+00  1.836e+00  
 CG73   -1.215897e+03  3.112575e-04   2.138e-01  2.000e+00  1.837e+00  
 CG74   -1.215895e+03  2.501585e-03   2.507e-01  2.014e+00  1.872e+00  
 CG75   -1.215888e+03  6.538278e-03   2.174e-01  2.000e+00  1.839e+00  
 CG76   -1.215896e+03  -8.282148e-03  1.751e-01  2.052e+00  1.975e+00  
 CG77   -1.215896e+03  -8.966020e-05  1.697e-01  2.000e+00  1.873e+00  
 CG78   -1.215896e+03  5.148818e-04   1.561e-01  2.000e+00  1.818e+00  
 CG79   -1.215901e+03  -5.286847e-03  1.468e-01  2.000e+00  1.843e+00  
 CG80   -1.215904e+03  -2.986712e-03  2.327e-01  2.004e+00  1.813e+00  
 CG81   -1.215901e+03  3.224796e-03   2.320e-01  2.000e+00  1.833e+00  
 CG82   -1.215863e+03  3.795310e-02   2.085e-01  2.000e+00  1.814e+00  
 CG83   -1.215873e+03  -9.884485e-03  2.360e-01  2.337e+00  1.971e+00  
 CG84   -1.215885e+03  -1.191953e-02  1.470e-02  2.263e+00  1.968e+00  
 CG85   -1.215894e+03  -8.788350e-03  3.127e-03  2.211e+00  1.888e+00  
 CG86   -1.215905e+03  -1.127331e-02  5.375e-02  2.505e+00  2.077e+00  
 CG87   -1.215899e+03  5.974710e-03   3.934e-02  2.000e+00  1.823e+00  
 CG88   -1.215905e+03  -6.190311e-03  2.012e-03  2.454e+00  2.016e+00  
 CG89   -1.215906e+03  -5.193076e-04  5.310e-04  2.170e+00  1.942e+00  
 CG90   -1.215906e+03  -4.050953e-04  1.764e-02  2.853e+00  2.233e+00  
 CG91   -1.215907e+03  -9.618614e-04  5.187e-03  2.409e+00  1.993e+00  
 CG92   -1.215904e+03  2.452842e-03   6.661e-03  2.485e+00  2.046e+00  
 CG93   -1.215906e+03  -1.855066e-03  3.011e-03  2.735e+00  2.170e+00  
 CG94   -1.215906e+03  5.692173e-04   3.383e-03  2.021e+00  1.889e+00  
 CG95   -1.215906e+03  -4.512626e-04  3.472e-03  2.208e+00  1.931e+00  
 CG96   -1.215906e+03  4.138897e-04   2.025e-03  2.000e+00  1.827e+00  
 CG97   -1.215906e+03  -2.442382e-04  3.423e-03  2.396e+00  2.103e+00  
 CG98   -1.215906e+03  -1.209135e-04  1.059e-03  2.010e+00  1.891e+00  
 CG99   -1.215906e+03  -8.508013e-06  6.211e-04  2.000e+00  1.793e+00  
 CG100  -1.215906e+03  8.648059e-05   5.651e-04  2.000e+00  1.859e+00  
 CG101  -1.215906e+03  -1.300005e-04  7.441e-05  2.030e+00  1.821e+00  
 CG102  -1.215906e+03  -1.584373e-04  7.754e-04  2.546e+00  2.063e+00  
 CG103  -1.215906e+03  2.592437e-05   8.177e-04  2.000e+00  1.827e+00  
 CG104  -1.215906e+03  2.267476e-05   6.815e-04  2.000e+00  1.825e+00  
 CG105  -1.215906e+03  -2.746514e-05  5.536e-04  2.035e+00  1.862e+00  
 CG106  -1.215906e+03  -1.487823e-05  5.744e-04  2.000e+00  1.806e+00  
 CG107  -1.215906e+03  3.189571e-05   7.047e-04  2.033e+00  1.853e+00  
 CG108  -1.215906e+03  2.699953e-05   4.485e-04  2.002e+00  1.793e+00  
 CG109  -1.215906e+03  -9.233099e-06  1.762e-04  2.020e+00  1.849e+00  
 CG110  -1.215906e+03  5.582512e-06   1.474e-04  2.000e+00  1.790e+00  
 CG111  -1.215906e+03  -1.069477e-05  4.756e-05  2.124e+00  1.913e+00  
 CG112  -1.215906e+03  -1.147121e-05  2.211e-05  2.056e+00  1.827e+00  
 CG113  -1.215906e+03  -6.311689e-06  2.140e-05  2.027e+00  1.844e+00  
 CG114  -1.215906e+03  -1.877608e-06  4.302e-05  2.004e+00  1.807e+00  
 CG115  -1.215906e+03  8.221047e-08   5.665e-05  2.000e+00  1.824e+00  
 CG116  -1.215906e+03  9.688116e-07   5.372e-05  2.000e+00  1.805e+00  
 CG117  -1.215906e+03  -9.779833e-06  3.045e-05  2.000e+00  1.822e+00  
 CG118  -1.215906e+03  -9.457213e-06  1.979e-04  2.209e+00  1.913e+00  
 CG119  -1.215906e+03  -3.226605e-06  1.729e-04  2.000e+00  1.825e+00  
 CG120  -1.215906e+03  -6.050535e-06  1.788e-04  2.000e+00  1.824e+00  
 CG121  -1.215906e+03  -1.619128e-05  1.855e-04  2.000e+00  1.824e+00  
 CG122  -1.215906e+03  1.973847e-05   9.814e-04  2.380e+00  1.998e+00  
 CG123  -1.215906e+03  -1.150926e-05  7.964e-04  2.019e+00  1.798e+00  
 CG124  -1.215906e+03  -1.085828e-05  7.028e-04  2.005e+00  1.845e+00  
 CG125  -1.215906e+03  8.229005e-06   7.440e-04  2.000e+00  1.789e+00  
 CG126  -1.215906e+03  7.311874e-06   6.564e-04  2.000e+00  1.865e+00  
 CG127  -1.215906e+03  6.493056e-06   6.472e-04  2.000e+00  1.853e+00  
 CG128  -1.215906e+03  -2.364516e-06  5.968e-04  2.030e+00  1.850e+00  
 CG129  -1.215906e+03  4.727968e-06   5.801e-04  2.000e+00  1.857e+00  
 CG130  -1.215906e+03  8.980649e-05   5.220e-04  2.004e+00  1.845e+00  
 CG131  -1.215906e+03  -4.706505e-05  4.335e-05  2.733e+00  2.156e+00  
 CG132  -1.215906e+03  -2.441083e-05  6.411e-05  2.382e+00  1.976e+00  
 CG133  -1.215906e+03  3.476116e-06   6.200e-05  2.000e+00  1.872e+00  
 CG134  -1.215906e+03  -1.062027e-05  9.610e-05  2.032e+00  1.917e+00  
 CG135  -1.215906e+03  -4.168322e-06  1.563e-04  2.051e+00  1.973e+00  
 CG136  -1.215906e+03  -9.136346e-07  1.540e-04  2.028e+00  1.890e+00  
 CG137  -1.215906e+03  7.427941e-06   1.390e-04  2.018e+00  1.909e+00  
 CG138  -1.215906e+03  8.635540e-06   1.003e-04  2.000e+00  1.894e+00  
 CG139  -1.215906e+03  -2.988118e-06  5.924e-05  2.000e+00  1.865e+00  
 CG140  -1.215906e+03  -2.581640e-06  5.951e-05  2.000e+00  1.847e+00  
 CG141  -1.215906e+03  1.133439e-05   5.435e-05  2.028e+00  1.868e+00  
 CG142  -1.215906e+03  -5.341118e-06  2.135e-05  2.060e+00  1.859e+00  
 CG143  -1.215906e+03  -6.381592e-07  2.349e-05  2.000e+00  1.878e+00  
 CG144  -1.215906e+03  1.717547e-05   2.409e-05  2.000e+00  1.867e+00  
 CG145  -1.215906e+03  -1.123093e-05  1.962e-05  2.230e+00  1.983e+00  
 CG146  -1.215906e+03  -3.255417e-06  3.334e-06  2.011e+00  1.841e+00  
 CG147  -1.215906e+03  -3.601655e-06  5.119e-06  2.327e+00  1.968e+00  
 CG148  -1.215906e+03  3.088473e-08   5.108e-06  2.000e+00  1.835e+00  
 CG149  -1.215906e+03  3.069152e-07   3.631e-06  2.000e+00  1.834e+00  
 CG150  -1.215906e+03  1.862339e-07   2.154e-06  2.000e+00  1.959e+00  
 CG151  -1.215906e+03  -2.318443e-09  1.184e-06  2.023e+00  2.043e+00  
 CG152  -1.215906e+03  2.277554e-07   1.657e-06  2.047e+00  1.920e+00  
 CG153  -1.215906e+03  -1.207005e-06  2.788e-06  2.321e+00  2.059e+00  
 CG154  -1.215906e+03  -3.612985e-07  2.523e-06  2.009e+00  1.929e+00  
 CG155  -1.215906e+03  5.953076e-07   3.413e-06  2.000e+00  1.869e+00  
 CG156  -1.215906e+03  -3.901322e-07  2.904e-06  2.015e+00  1.903e+00  
 CG157  -1.215906e+03  -5.986189e-08  3.691e-06  2.000e+00  1.837e+00  
 CG158  -1.215906e+03  1.000388e-07   4.067e-06  2.000e+00  2.017e+00  
 CG159  -1.215906e+03  4.843817e-07   3.419e-06  2.000e+00  1.958e+00  
 CG160  -1.215906e+03  -3.667353e-07  1.629e-06  2.011e+00  1.844e+00  
 CG161  -1.215906e+03  8.221608e-08   2.153e-06  2.000e+00  1.850e+00  
 CG162  -1.215906e+03  -2.746275e-07  1.940e-06  2.000e+00  1.854e+00  
 CG163  -1.215906e+03  4.983193e-08   2.947e-06  2.000e+00  1.822e+00  
 CG164  -1.215906e+03  -1.355619e-07  2.687e-06  2.000e+00  1.834e+00  
 CG165  -1.215906e+03  5.962407e-08   3.451e-06  2.000e+00  1.822e+00  
 CG166  -1.215906e+03  1.622330e-08   3.380e-06  2.000e+00  1.830e+00  
 CG167  -1.215906e+03  2.610560e-07   3.396e-06  2.000e+00  1.876e+00  
 CG168  -1.215906e+03  1.093166e-07   2.592e-06  2.000e+00  1.912e+00  
 CG169  -1.215906e+03  -1.114051e-07  2.410e-06  2.000e+00  1.921e+00  
 CG170  -1.215906e+03  -1.534817e-07  2.629e-06  2.000e+00  1.929e+00  
 CG171  -1.215906e+03  -1.831553e-08  3.279e-06  2.000e+00  1.929e+00  
 CG172  -1.215906e+03  9.050938e-07   2.803e-06  2.000e+00  2.049e+00  
 CG173  -1.215906e+03  -4.671115e-07  1.130e-06  2.086e+00  2.202e+00  
 CG174  -1.215906e+03  7.546332e-06   5.645e-07  2.000e+00  1.906e+00  
 ><><><><><><><><><><><><><><><><><><><><><><
 TOTAL-STRESS (KBAR):
 ><><><><><><><><><><><><><><><><><><><><><><
 -1.163e+01     -1.010e-04     -4.512e-04     
 -1.010e-04     -1.163e+01     -2.605e-04     
 -4.512e-04     -2.605e-04     4.133e+01      
 ETOT DIFF (eV)       : -1.748e-03
 LARGEST GRAD (eV/A)  : 1.270e-02
 -------------------------------------------
 RELAX CELL : 1
 RELAX IONS : 6 (in total: 6)
 -------------------------------------------
 ITER   ETOT(eV)       EDIFF(eV)      DRHO2      CG_ITER    TIME(S)    
 CG1    -1.155462e+03  0.000000e+00   2.412e+01  5.356e+01  2.396e+01  
 CG2    -8.005471e+02  3.549149e+02   6.393e+03  1.023e+01  5.471e+00  
 CG3    -1.209449e+03  -4.089023e+02  1.418e+01  9.083e+00  5.040e+00  
 CG4    -1.213701e+03  -4.251424e+00  2.014e+00  2.039e+00  1.947e+00  
 CG5    -1.214693e+03  -9.926678e-01  1.377e+00  2.218e+00  1.984e+00  
 CG6    -1.214914e+03  -2.205053e-01  3.896e-01  2.027e+00  1.849e+00  
 CG7    -1.215629e+03  -7.146052e-01  4.013e-03  2.761e+00  2.234e+00  
 CG8    -1.215829e+03  -2.003278e-01  8.701e-01  5.487e+00  3.530e+00  
 CG9    -1.215896e+03  -6.714639e-02  4.821e-01  3.363e+00  2.589e+00  
 CG10   -1.215907e+03  -1.109198e-02  9.497e-02  2.692e+00  2.149e+00  
 CG11   -1.215904e+03  3.017322e-03   8.693e-02  2.000e+00  1.831e+00  
 CG12   -1.215918e+03  -1.423534e-02  1.031e-01  2.598e+00  2.117e+00  
 CG13   -1.215924e+03  -5.570096e-03  1.050e-01  2.000e+00  1.833e+00  
 CG14   -1.215882e+03  4.220064e-02   1.231e-01  2.000e+00  1.832e+00  
 CG15   -1.215910e+03  -2.831243e-02  2.762e-01  3.249e+00  2.379e+00  
 CG16   -1.215909e+03  6.134822e-04   1.608e-01  2.051e+00  1.852e+00  
 CG17   -1.215909e+03  2.080065e-04   1.152e-01  2.149e+00  1.895e+00  
 CG18   -1.215894e+03  1.475963e-02   1.058e-01  2.000e+00  1.831e+00  
 CG19   -1.215914e+03  -1.934174e-02  1.200e-02  2.770e+00  2.170e+00  
 CG20   -1.215911e+03  3.046007e-03   2.746e-02  2.057e+00  1.861e+00  
 CG21   -1.215903e+03  7.295408e-03   2.203e-02  2.000e+00  1.849e+00  
 CG22   -1.215908e+03  -4.080016e-03  1.033e-02  2.303e+00  1.961e+00  
 CG23   -1.215907e+03  4.802566e-04   1.354e-02  2.000e+00  1.875e+00  
 CG24   -1.215907e+03  1.449294e-04   1.478e-02  2.002e+00  1.832e+00  
 CG25   -1.215907e+03  2.317965e-04   1.289e-02  2.000e+00  1.856e+00  
 CG26   -1.215907e+03  -4.660112e-04  1.166e-02  2.000e+00  1.859e+00  
 CG27   -1.215908e+03  -8.661502e-04  1.472e-02  2.000e+00  1.862e+00  
 CG28   -1.215907e+03  7.062114e-04   1.789e-02  2.000e+00  1.816e+00  
 CG29   -1.215906e+03  1.409552e-03   1.660e-02  2.000e+00  1.952e+00  
 CG30   -1.215905e+03  7.678944e-04   1.057e-02  2.000e+00  1.832e+00  
 CG31   -1.215906e+03  -3.794232e-04  6.387e-03  2.000e+00  1.838e+00  
 CG32   -1.215905e+03  3.277754e-04   6.261e-03  2.000e+00  1.834e+00  
 CG33   -1.215906e+03  -9.848769e-04  5.448e-04  2.035e+00  1.913e+00  
 CG34   -1.215907e+03  -4.358690e-04  1.272e-03  2.341e+00  2.142e+00  
 CG35   -1.215907e+03  -3.807547e-05  1.371e-03  2.000e+00  1.834e+00  
 CG36   -1.215907e+03  -1.933125e-05  1.353e-03  2.000e+00  1.851e+00  
 CG37   -1.215907e+03  -2.578061e-04  1.408e-03  2.000e+00  1.893e+00  
 CG38   -1.215907e+03  -2.213584e-05  1.637e-03  2.000e+00  1.845e+00  
 CG39   -1.215906e+03  6.576049e-04   1.674e-03  2.000e+00  1.860e+00  
 CG40   -1.215907e+03  -3.725526e-04  5.021e-03  2.297e+00  1.933e+00  
 CG41   -1.215907e+03  1.402038e-04   4.622e-03  2.000e+00  1.869e+00  
 CG42   -1.215907e+03  -6.289302e-05  4.105e-03  2.000e+00  1.813e+00  
 CG43   -1.215907e+03  4.284992e-05   4.223e-03  2.000e+00  1.843e+00  
 CG44   -1.215906e+03  9.314197e-05   3.675e-03  2.000e+00  1.832e+00  
 CG45   -1.215906e+03  -6.255008e-05  2.908e-03  2.000e+00  1.911e+00  
 CG46   -1.215906e+03  9.893097e-05   3.230e-03  2.000e+00  1.829e+00  
 CG47   -1.215906e+03  -1.664820e-05  2.721e-03  2.000e+00  1.833e+00  
 CG48   -1.215906e+03  1.989966e-05   3.070e-03  2.000e+00  1.828e+00  
 CG49   -1.215907e+03  -2.109335e-04  3.354e-03  2.000e+00  1.832e+00  
 CG50   -1.215907e+03  -1.147476e-04  4.657e-03  2.000e+00  1.825e+00  
 CG51   -1.215907e+03  -2.125041e-04  4.775e-03  2.000e+00  1.841e+00  
 CG52   -1.215907e+03  3.189935e-05   6.436e-03  2.000e+00  1.842e+00  
 CG53   -1.215906e+03  9.679479e-04   7.809e-03  2.281e+00  1.922e+00  
 CG54   -1.215906e+03  -2.248920e-04  2.230e-03  2.324e+00  1.998e+00  
 CG55   -1.215906e+03  -3.586007e-05  1.114e-03  2.082e+00  1.864e+00  
 CG56   -1.215906e+03  -1.173739e-04  1.569e-03  2.040e+00  1.846e+00  
 CG57   -1.215906e+03  -8.136794e-05  1.423e-03  2.000e+00  1.829e+00  
 CG58   -1.215906e+03  2.308372e-05   1.610e-03  2.000e+00  1.826e+00  
 CG59   -1.215906e+03  7.212398e-05   1.256e-03  2.000e+00  1.828e+00  
 CG60   -1.215906e+03  -3.825770e-06  7.739e-04  2.000e+00  1.838e+00  
 CG61   -1.215906e+03  -5.533664e-05  5.602e-04  2.009e+00  1.904e+00  
 CG62   -1.215906e+03  -1.065776e-04  5.304e-04  2.010e+00  1.860e+00  
 CG63   -1.215906e+03  -3.230302e-05  1.078e-03  2.010e+00  1.907e+00  
 CG64   -1.215906e+03  1.697004e-05   9.492e-04  2.000e+00  1.810e+00  
 CG65   -1.215906e+03  1.017707e-04   9.376e-04  2.000e+00  1.834e+00  
 CG66   -1.215906e+03  1.947831e-04   4.603e-04  2.000e+00  1.877e+00  
 CG67   -1.215906e+03  -1.323057e-04  2.645e-04  2.013e+00  1.868e+00  
 CG68   -1.215906e+03  -2.265090e-05  1.774e-04  2.013e+00  1.862e+00  
 CG69   -1.215906e+03  -4.411496e-05  5.120e-05  2.021e+00  1.840e+00  
 CG70   -1.215906e+03  -3.479820e-05  1.718e-04  2.124e+00  1.891e+00  
 CG71   -1.215906e+03  -4.800207e-06  1.794e-04  2.000e+00  1.831e+00  
 CG72   -1.215906e+03  -7.855495e-06  1.884e-04  2.000e+00  1.841e+00  
 CG73   -1.215906e+03  7.174555e-06   5.693e-04  2.136e+00  1.937e+00  
 CG74   -1.215906e+03  -4.681928e-06  4.778e-04  2.000e+00  1.916e+00  
 CG75   -1.215906e+03  -4.217211e-05  4.987e-04  2.000e+00  1.813e+00  
 CG76   -1.215906e+03  -4.040548e-06  6.171e-04  2.000e+00  1.944e+00  
 CG77   -1.215906e+03  6.004017e-05   7.667e-04  2.087e+00  1.867e+00  
 CG78   -1.215906e+03  -5.496758e-05  4.326e-04  2.030e+00  1.853e+00  
 CG79   -1.215906e+03  -1.581509e-05  5.660e-04  2.027e+00  1.888e+00  
 CG80   -1.215906e+03  8.380812e-06   5.369e-04  2.028e+00  1.841e+00  
 CG81   -1.215906e+03  9.352599e-05   6.874e-04  2.000e+00  1.859e+00  
 CG82   -1.215906e+03  9.892945e-06   6.796e-04  2.092e+00  1.853e+00  
 CG83   -1.215906e+03  -2.373717e-05  2.259e-04  2.154e+00  1.927e+00  
 CG84   -1.215906e+03  -1.284361e-05  2.177e-04  2.000e+00  1.833e+00  
 CG85   -1.215906e+03  -5.502740e-08  1.964e-04  2.000e+00  1.823e+00  
 CG86   -1.215906e+03  8.128957e-07   1.527e-04  2.000e+00  1.906e+00  
 CG87   -1.215906e+03  -5.264587e-06  1.501e-04  2.000e+00  1.826e+00  
 CG88   -1.215906e+03  3.159378e-05   1.514e-04  2.000e+00  1.828e+00  
 CG89   -1.215906e+03  2.186009e-05   1.323e-04  2.000e+00  1.837e+00  
 CG90   -1.215906e+03  -9.504911e-06  2.536e-04  2.098e+00  1.874e+00  
 CG91   -1.215906e+03  -2.971295e-05  4.415e-05  2.116e+00  2.382e+00  
 CG92   -1.215906e+03  -1.161056e-05  8.000e-05  2.045e+00  1.852e+00  
 CG93   -1.215906e+03  1.645259e-07   8.512e-05  2.000e+00  2.031e+00  
 CG94   -1.215906e+03  -1.369203e-05  1.028e-04  2.000e+00  1.886e+00  
 CG95   -1.215906e+03  -5.147310e-06  1.205e-04  2.000e+00  1.908e+00  
 CG96   -1.215906e+03  1.713235e-05   1.320e-04  2.000e+00  1.904e+00  
 CG97   -1.215906e+03  9.450252e-06   2.096e-04  2.006e+00  2.023e+00  
 CG98   -1.215906e+03  3.042119e-05   1.676e-04  2.000e+00  1.880e+00  
 CG99   -1.215906e+03  -8.429619e-06  9.804e-05  2.127e+00  1.865e+00  
 CG100  -1.215906e+03  -4.492445e-07  6.129e-05  2.030e+00  1.845e+00  
 CG101  -1.215906e+03  -7.920587e-06  1.241e-04  2.168e+00  2.058e+00  
 CG102  -1.215906e+03  -8.926885e-06  7.904e-05  2.023e+00  1.838e+00  
 CG103  -1.215906e+03  2.266672e-06   7.729e-05  2.000e+00  1.869e+00  
 CG104  -1.215906e+03  5.371424e-06   7.377e-05  2.000e+00  1.955e+00  
 CG105  -1.215906e+03  1.125587e-05   6.155e-05  2.000e+00  1.846e+00  
 CG106  -1.215906e+03  -1.276825e-05  1.654e-05  2.047e+00  1.938e+00  
 CG107  -1.215906e+03  -5.142144e-06  8.300e-06  2.050e+00  1.917e+00  
 CG108  -1.215906e+03  -1.455893e-05  1.718e-04  2.530e+00  2.148e+00  
 CG109  -1.215906e+03  4.157500e-06   1.543e-04  2.000e+00  2.210e+00  
 CG110  -1.215906e+03  -1.507701e-06  1.642e-04  2.000e+00  1.814e+00  
 CG111  -1.215906e+03  -8.938896e-07  1.796e-04  2.000e+00  2.014e+00  
 CG112  -1.215906e+03  5.716793e-06   1.851e-04  2.000e+00  1.877e+00  
 CG113  -1.215906e+03  4.870728e-06   2.248e-04  2.198e+00  1.911e+00  
 CG114  -1.215906e+03  -4.669312e-06  1.258e-04  2.174e+00  1.916e+00  
 CG115  -1.215906e+03  3.079456e-06   1.055e-04  2.000e+00  1.805e+00  
 CG116  -1.215906e+03  1.171530e-05   9.640e-05  2.000e+00  1.843e+00  
 CG117  -1.215906e+03  -9.248315e-06  1.719e-05  2.441e+00  2.003e+00  
 CG118  -1.215906e+03  -1.116110e-06  1.476e-05  2.000e+00  1.827e+00  
 CG119  -1.215906e+03  1.486559e-06   1.650e-05  2.004e+00  1.812e+00  
 CG120  -1.215906e+03  -2.183597e-06  5.418e-06  2.019e+00  1.827e+00  
 CG121  -1.215906e+03  -1.717486e-06  8.642e-06  2.122e+00  1.887e+00  
 CG122  -1.215906e+03  8.058576e-08   9.402e-06  2.000e+00  1.856e+00  
 CG123  -1.215906e+03  -1.371840e-06  1.042e-05  2.000e+00  1.833e+00  
 CG124  -1.215906e+03  5.832452e-06   1.168e-05  2.000e+00  1.953e+00  
 CG125  -1.215906e+03  -5.636742e-07  7.055e-06  2.039e+00  1.886e+00  
 CG126  -1.215906e+03  8.466994e-06   5.054e-05  2.240e+00  2.126e+00  
 CG127  -1.215906e+03  4.790734e-07   6.561e-07  2.210e+00  1.982e+00  
 ><><><><><><><><><><><><><><><><><><><><><><
 TOTAL-STRESS (KBAR):
 ><><><><><><><><><><><><><><><><><><><><><><
 -1.164e+01     8.726e-05      6.732e-05      
 8.726e-05      -1.164e+01     3.887e-05      
 6.732e-05      3.887e-05      4.133e+01      
 ETOT DIFF (eV)       : -7.230e-05
 LARGEST GRAD (eV/A)  : 2.341e-03
 -------------------------------------------
 RELAX CELL : 1
 RELAX IONS : 7 (in total: 7)
 -------------------------------------------
 ITER   ETOT(eV)       EDIFF(eV)      DRHO2      CG_ITER    TIME(S)    
 CG1    -1.206672e+03  0.000000e+00   3.691e+00  5.176e+01  2.348e+01  
 CG2    -1.096343e+03  1.103295e+02   1.894e+03  7.185e+00  4.241e+00  
 CG3    -1.212537e+03  -1.161939e+02  1.276e+01  6.609e+00  3.843e+00  
 CG4    -1.214221e+03  -1.683860e+00  1.130e+00  2.025e+00  1.810e+00  
 CG5    -1.215281e+03  -1.060242e+00  2.114e+00  2.497e+00  2.072e+00  
 CG6    -1.215390e+03  -1.093270e-01  6.249e-01  2.003e+00  1.833e+00  
 CG7    -1.215620e+03  -2.302006e-01  4.539e-02  2.090e+00  1.866e+00  
 CG8    -1.215780e+03  -1.590584e-01  2.882e+00  4.109e+00  2.763e+00  
 CG9    -1.215755e+03  2.462281e-02   5.017e-01  2.534e+00  2.055e+00  
 CG10   -1.215937e+03  -1.822262e-01  1.555e+00  2.832e+00  2.209e+00  
 CG11   -1.215859e+03  7.844703e-02   1.268e+00  2.000e+00  1.833e+00  
 CG12   -1.215899e+03  -4.070265e-02  6.232e-01  2.123e+00  1.885e+00  
 CG13   -1.215820e+03  7.910381e-02   6.931e-01  2.000e+00  1.880e+00  
 CG14   -1.215909e+03  -8.862423e-02  4.937e-02  2.424e+00  2.001e+00  
 CG15   -1.215919e+03  -1.022983e-02  1.517e-01  2.013e+00  1.868e+00  
 CG16   -1.215924e+03  -4.391733e-03  1.990e-01  2.000e+00  1.797e+00  
 CG17   -1.215923e+03  5.877041e-04   2.921e-01  2.076e+00  1.894e+00  
 CG18   -1.215933e+03  -1.042174e-02  2.505e-01  2.000e+00  1.834e+00  
 CG19   -1.215926e+03  7.647543e-03   3.258e-01  2.000e+00  1.829e+00  
 CG20   -1.215912e+03  1.353546e-02   2.786e-01  2.000e+00  1.837e+00  
 CG21   -1.215912e+03  -6.771496e-05  1.890e-01  2.002e+00  1.833e+00  
 CG22   -1.215907e+03  5.315547e-03   1.759e-01  2.000e+00  1.867e+00  
 CG23   -1.215910e+03  -3.421477e-03  1.526e-01  2.000e+00  1.861e+00  
 CG24   -1.215913e+03  -2.657577e-03  1.657e-01  2.000e+00  1.832e+00  
 CG25   -1.215901e+03  1.180729e-02   1.850e-01  2.000e+00  1.971e+00  
 CG26   -1.215895e+03  5.925816e-03   1.118e-01  2.000e+00  1.927e+00  
 CG27   -1.215900e+03  -4.740973e-03  5.536e-02  2.000e+00  1.843e+00  
 CG28   -1.215906e+03  -5.804793e-03  6.957e-02  2.000e+00  1.891e+00  
 CG29   -1.215891e+03  1.449966e-02   1.115e-01  2.000e+00  1.909e+00  
 CG30   -1.215897e+03  -5.599983e-03  1.342e-02  2.000e+00  1.994e+00  
 CG31   -1.215904e+03  -6.850952e-03  1.019e-02  2.116e+00  1.912e+00  
 CG32   -1.215902e+03  1.425096e-03   4.860e-03  2.006e+00  1.870e+00  
 CG33   -1.215903e+03  -3.023136e-04  1.412e-02  2.136e+00  1.905e+00  
 CG34   -1.215906e+03  -3.337045e-03  8.095e-03  2.220e+00  1.952e+00  
 CG35   -1.215910e+03  -3.887964e-03  7.964e-03  2.000e+00  2.003e+00  
 CG36   -1.215914e+03  -4.408224e-03  1.953e-01  2.356e+00  2.111e+00  
 CG37   -1.215915e+03  -1.054275e-03  1.831e-01  2.000e+00  1.886e+00  
 CG38   -1.215912e+03  3.303643e-03   1.878e-01  2.000e+00  1.970e+00  
 CG39   -1.215909e+03  2.580985e-03   1.771e-01  2.020e+00  1.859e+00  
 CG40   -1.215910e+03  -4.433827e-04  1.560e-01  2.000e+00  1.923e+00  
 CG41   -1.215910e+03  -5.304255e-04  1.547e-01  2.002e+00  1.943e+00  
 CG42   -1.215912e+03  -2.059355e-03  1.523e-01  2.000e+00  1.827e+00  
 CG43   -1.215922e+03  -9.912699e-03  1.566e-01  2.000e+00  1.873e+00  
 CG44   -1.215928e+03  -5.459276e-03  2.462e-01  2.076e+00  1.958e+00  
 CG45   -1.215926e+03  1.694154e-03   4.162e-01  2.095e+00  2.076e+00  
 CG46   -1.215926e+03  1.300257e-04   3.909e-01  2.000e+00  2.004e+00  
 CG47   -1.215925e+03  1.496357e-03   3.918e-01  2.000e+00  1.866e+00  
 CG48   -1.215925e+03  -5.242844e-04  3.840e-01  2.000e+00  1.982e+00  
 CG49   -1.215925e+03  -1.445861e-04  3.893e-01  2.000e+00  1.852e+00  
 CG50   -1.215888e+03  3.756548e-02   3.918e-01  2.000e+00  1.793e+00  
 CG51   -1.215904e+03  -1.669413e-02  4.192e-03  2.495e+00  2.067e+00  
 CG52   -1.215904e+03  -1.646607e-04  6.084e-03  2.013e+00  1.830e+00  
 CG53   -1.215903e+03  1.638555e-03   2.849e-03  2.042e+00  1.843e+00  
 CG54   -1.215907e+03  -4.092234e-03  9.660e-02  2.866e+00  2.221e+00  
 CG55   -1.215907e+03  -5.060894e-04  5.837e-02  2.292e+00  1.947e+00  
 CG56   -1.215908e+03  -7.293610e-05  5.100e-02  2.000e+00  1.827e+00  
 CG57   -1.215909e+03  -1.112557e-03  4.994e-02  2.000e+00  1.826e+00  
 CG58   -1.215909e+03  -5.047400e-04  5.517e-02  2.000e+00  1.890e+00  
 CG59   -1.215912e+03  -2.724341e-03  5.248e-02  2.000e+00  1.828e+00  
 CG60   -1.215909e+03  2.935250e-03   6.980e-02  2.000e+00  1.826e+00  
 CG61   -1.215910e+03  -1.249597e-03  7.071e-02  2.039e+00  1.881e+00  
 CG62   -1.215907e+03  3.535970e-03   7.215e-02  2.000e+00  1.880e+00  
 CG63   -1.215907e+03  -6.321930e-04  6.438e-02  2.453e+00  2.100e+00  
 CG64   -1.215897e+03  1.003591e-02   4.488e-02  2.032e+00  1.843e+00  
 CG65   -1.215906e+03  -8.577583e-03  2.149e-02  2.841e+00  2.195e+00  
 CG66   -1.215905e+03  3.825490e-04   1.548e-02  2.000e+00  1.830e+00  
 CG67   -1.215907e+03  -1.821225e-03  4.591e-03  2.032e+00  1.826e+00  
 CG68   -1.215907e+03  7.967231e-05   7.843e-03  2.000e+00  1.827e+00  
 CG69   -1.215907e+03  4.703994e-04   7.555e-03  2.000e+00  1.817e+00  
[...]
 ---------------------------------------------------------
 Use plane wave basis
 ---------------------------------------------------------
 ELEMENT NATOM       XC          
 Al      22          PZ-LDA
 ---------------------------------------------------------
 Initial plane wave basis and FFT box
 ---------------------------------------------------------
 DONE(0.0854344  SEC) : INIT PLANEWAVE
 UNIFORM GRID DIM     : 24 * 24 * 384
 UNIFORM GRID DIM(BIG): 24 * 24 * 384
 MEMORY FOR PSI (MB)  : 12.7375
 DONE(0.128623   SEC) : LOCAL POTENTIAL
 DONE(0.128752   SEC) : NON-LOCAL POTENTIAL
 START POTENTIAL      : atomic
 DONE(0.209691   SEC) : INIT POTENTIAL
 DONE(2.621      SEC) : INIT BASIS
 -------------------------------------------
 RELAX CELL : 1
 RELAX IONS : 1 (in total: 1)
 -------------------------------------------
 ITER   ETOT(eV)       EDIFF(eV)      DRHO2      CG_ITER    TIME(S)    
 CG1    -1.270256e+03  0.000000e+00   1.925e+00  8.168e+00  4.150e+00  

===================================================================================
=   BAD TERMINATION OF ONE OF YOUR APPLICATION PROCESSES
=   RANK 0 PID 13071 RUNNING AT dell-Precision-7920-Tower
=   KILLED BY SIGNAL: 9 (Killed)
===================================================================================

===================================================================================
=   BAD TERMINATION OF ONE OF YOUR APPLICATION PROCESSES
=   RANK 1 PID 13072 RUNNING AT dell-Precision-7920-Tower
=   KILLED BY SIGNAL: 9 (Killed)
===================================================================================

===================================================================================
=   BAD TERMINATION OF ONE OF YOUR APPLICATION PROCESSES
=   RANK 2 PID 13073 RUNNING AT dell-Precision-7920-Tower
=   KILLED BY SIGNAL: 9 (Killed)
===================================================================================

===================================================================================
=   BAD TERMINATION OF ONE OF YOUR APPLICATION PROCESSES
=   RANK 3 PID 13074 RUNNING AT dell-Precision-7920-Tower
=   KILLED BY SIGNAL: 9 (Killed)
===================================================================================

===================================================================================
=   BAD TERMINATION OF ONE OF YOUR APPLICATION PROCESSES
=   RANK 4 PID 13075 RUNNING AT dell-Precision-7920-Tower
=   KILLED BY SIGNAL: 9 (Killed)
===================================================================================

===================================================================================
=   BAD TERMINATION OF ONE OF YOUR APPLICATION PROCESSES
=   RANK 5 PID 13076 RUNNING AT dell-Precision-7920-Tower
=   KILLED BY SIGNAL: 9 (Killed)
===================================================================================

===================================================================================
=   BAD TERMINATION OF ONE OF YOUR APPLICATION PROCESSES
=   RANK 6 PID 13077 RUNNING AT dell-Precision-7920-Tower
=   KILLED BY SIGNAL: 9 (Killed)
===================================================================================

===================================================================================
=   BAD TERMINATION OF ONE OF YOUR APPLICATION PROCESSES
=   RANK 7 PID 13078 RUNNING AT dell-Precision-7920-Tower
=   KILLED BY SIGNAL: 9 (Killed)
===================================================================================

===================================================================================
=   BAD TERMINATION OF ONE OF YOUR APPLICATION PROCESSES
=   RANK 8 PID 13079 RUNNING AT dell-Precision-7920-Tower
=   KILLED BY SIGNAL: 9 (Killed)
===================================================================================

===================================================================================
=   BAD TERMINATION OF ONE OF YOUR APPLICATION PROCESSES
=   RANK 9 PID 13080 RUNNING AT dell-Precision-7920-Tower
=   KILLED BY SIGNAL: 9 (Killed)
===================================================================================

===================================================================================
=   BAD TERMINATION OF ONE OF YOUR APPLICATION PROCESSES
=   RANK 10 PID 13081 RUNNING AT dell-Precision-7920-Tower
=   KILLED BY SIGNAL: 15 (Terminated)
===================================================================================

===================================================================================
=   BAD TERMINATION OF ONE OF YOUR APPLICATION PROCESSES
=   RANK 11 PID 13082 RUNNING AT dell-Precision-7920-Tower
=   KILLED BY SIGNAL: 9 (Killed)
===================================================================================

===================================================================================
=   BAD TERMINATION OF ONE OF YOUR APPLICATION PROCESSES
=   RANK 12 PID 13083 RUNNING AT dell-Precision-7920-Tower
=   KILLED BY SIGNAL: 9 (Killed)
===================================================================================

===================================================================================
=   BAD TERMINATION OF ONE OF YOUR APPLICATION PROCESSES
=   RANK 13 PID 13084 RUNNING AT dell-Precision-7920-Tower
=   KILLED BY SIGNAL: 9 (Killed)
===================================================================================

===================================================================================
=   BAD TERMINATION OF ONE OF YOUR APPLICATION PROCESSES
=   RANK 14 PID 13085 RUNNING AT dell-Precision-7920-Tower
=   KILLED BY SIGNAL: 9 (Killed)
===================================================================================

===================================================================================
=   BAD TERMINATION OF ONE OF YOUR APPLICATION PROCESSES
=   RANK 15 PID 13086 RUNNING AT dell-Precision-7920-Tower
=   KILLED BY SIGNAL: 9 (Killed)
===================================================================================
 *********************************************************
 *                                                       *
 *                  WELCOME TO ABACUS                    *
 *                                                       *
 *            'Atomic-orbital Based Ab-initio            *
 *                  Computation at UStc'                 *
 *                                                       *
 *          Website: http://abacus.ustc.edu.cn/          *
 *                                                       *
 *********************************************************
 Tue Apr 19 16:08:51 2022
 MAKE THE DIR         : OUT.stack/
 DONE(0.00916812 SEC) : SETUP UNITCELL
 DONE(0.0433031  SEC) : SYMMETRY
 DONE(0.0438874  SEC) : INIT K-POINTS
 ---------------------------------------------------------
 Cell relaxation calculations
 ---------------------------------------------------------
 SPIN    KPOINTS         PROCESSORS  
 1       31              16          
 ---------------------------------------------------------
 Use plane wave basis
 ---------------------------------------------------------
 ELEMENT NATOM       XC          
 Al      22          PZ-LDA
 ---------------------------------------------------------
 Initial plane wave basis and FFT box
 ---------------------------------------------------------
 DONE(0.0854487  SEC) : INIT PLANEWAVE
 UNIFORM GRID DIM     : 24 * 24 * 384
 UNIFORM GRID DIM(BIG): 24 * 24 * 384
 MEMORY FOR PSI (MB)  : 12.7375
 DONE(0.128748   SEC) : LOCAL POTENTIAL
 DONE(0.12888    SEC) : NON-LOCAL POTENTIAL
 START POTENTIAL      : atomic
 DONE(0.209553   SEC) : INIT POTENTIAL
 DONE(2.5849     SEC) : INIT BASIS
 -------------------------------------------
 RELAX CELL : 1
 RELAX IONS : 1 (in total: 1)
 -------------------------------------------
 ITER   ETOT(eV)       EDIFF(eV)      DRHO2      CG_ITER    TIME(S)    

===================================================================================
=   BAD TERMINATION OF ONE OF YOUR APPLICATION PROCESSES
=   RANK 0 PID 13133 RUNNING AT dell-Precision-7920-Tower
=   KILLED BY SIGNAL: 9 (Killed)
===================================================================================

===================================================================================
=   BAD TERMINATION OF ONE OF YOUR APPLICATION PROCESSES
=   RANK 1 PID 13134 RUNNING AT dell-Precision-7920-Tower
=   KILLED BY SIGNAL: 9 (Killed)
===================================================================================

===================================================================================
=   BAD TERMINATION OF ONE OF YOUR APPLICATION PROCESSES
=   RANK 2 PID 13135 RUNNING AT dell-Precision-7920-Tower
=   KILLED BY SIGNAL: 9 (Killed)
===================================================================================

===================================================================================
=   BAD TERMINATION OF ONE OF YOUR APPLICATION PROCESSES
=   RANK 3 PID 13136 RUNNING AT dell-Precision-7920-Tower
=   KILLED BY SIGNAL: 9 (Killed)
===================================================================================

===================================================================================
=   BAD TERMINATION OF ONE OF YOUR APPLICATION PROCESSES
=   RANK 4 PID 13137 RUNNING AT dell-Precision-7920-Tower
=   KILLED BY SIGNAL: 9 (Killed)
===================================================================================

===================================================================================
=   BAD TERMINATION OF ONE OF YOUR APPLICATION PROCESSES
=   RANK 5 PID 13138 RUNNING AT dell-Precision-7920-Tower
=   KILLED BY SIGNAL: 15 (Terminated)
===================================================================================

===================================================================================
=   BAD TERMINATION OF ONE OF YOUR APPLICATION PROCESSES
=   RANK 6 PID 13139 RUNNING AT dell-Precision-7920-Tower
=   KILLED BY SIGNAL: 9 (Killed)
===================================================================================

===================================================================================
=   BAD TERMINATION OF ONE OF YOUR APPLICATION PROCESSES
=   RANK 7 PID 13140 RUNNING AT dell-Precision-7920-Tower
=   KILLED BY SIGNAL: 9 (Killed)
===================================================================================

===================================================================================
=   BAD TERMINATION OF ONE OF YOUR APPLICATION PROCESSES
=   RANK 8 PID 13141 RUNNING AT dell-Precision-7920-Tower
=   KILLED BY SIGNAL: 9 (Killed)
===================================================================================

===================================================================================
=   BAD TERMINATION OF ONE OF YOUR APPLICATION PROCESSES
=   RANK 9 PID 13142 RUNNING AT dell-Precision-7920-Tower
=   KILLED BY SIGNAL: 9 (Killed)
===================================================================================

===================================================================================
=   BAD TERMINATION OF ONE OF YOUR APPLICATION PROCESSES
=   RANK 10 PID 13143 RUNNING AT dell-Precision-7920-Tower
=   KILLED BY SIGNAL: 9 (Killed)
===================================================================================

===================================================================================
=   BAD TERMINATION OF ONE OF YOUR APPLICATION PROCESSES
=   RANK 11 PID 13144 RUNNING AT dell-Precision-7920-Tower
=   KILLED BY SIGNAL: 9 (Killed)
===================================================================================

===================================================================================
=   BAD TERMINATION OF ONE OF YOUR APPLICATION PROCESSES
=   RANK 12 PID 13145 RUNNING AT dell-Precision-7920-Tower
=   KILLED BY SIGNAL: 9 (Killed)
===================================================================================

===================================================================================
=   BAD TERMINATION OF ONE OF YOUR APPLICATION PROCESSES
=   RANK 13 PID 13146 RUNNING AT dell-Precision-7920-Tower
=   KILLED BY SIGNAL: 9 (Killed)
===================================================================================

===================================================================================
=   BAD TERMINATION OF ONE OF YOUR APPLICATION PROCESSES
=   RANK 14 PID 13147 RUNNING AT dell-Precision-7920-Tower
=   KILLED BY SIGNAL: 9 (Killed)
===================================================================================

===================================================================================
=   BAD TERMINATION OF ONE OF YOUR APPLICATION PROCESSES
=   RANK 15 PID 13148 RUNNING AT dell-Precision-7920-Tower
=   KILLED BY SIGNAL: 9 (Killed)
===================================================================================
 *********************************************************
 *                                                       *
 *                  WELCOME TO ABACUS                    *
 *                                                       *
 *            'Atomic-orbital Based Ab-initio            *
 *                  Computation at UStc'                 *
 *                                                       *
 *          Website: http://abacus.ustc.edu.cn/          *
 *                                                       *
 *********************************************************
 Tue Apr 19 16:08:57 2022
 MAKE THE DIR         : OUT.stack/
 DONE(0.00871771 SEC) : SETUP UNITCELL
 DONE(0.042296   SEC) : SYMMETRY
 DONE(0.0428938  SEC) : INIT K-POINTS
 ---------------------------------------------------------
 Cell relaxation calculations
 ---------------------------------------------------------
 SPIN    KPOINTS         PROCESSORS  
 1       31              16          
 ---------------------------------------------------------
 Use plane wave basis
 ---------------------------------------------------------
 ELEMENT NATOM       XC          
 Al      22          PZ-LDA
 ---------------------------------------------------------
 Initial plane wave basis and FFT box
 ---------------------------------------------------------
 DONE(0.0845738  SEC) : INIT PLANEWAVE
 UNIFORM GRID DIM     : 24 * 24 * 384
 UNIFORM GRID DIM(BIG): 24 * 24 * 384
 MEMORY FOR PSI (MB)  : 12.7375
 DONE(0.12788    SEC) : LOCAL POTENTIAL
 DONE(0.128017   SEC) : NON-LOCAL POTENTIAL
 START POTENTIAL      : atomic
 DONE(0.208946   SEC) : INIT POTENTIAL
 DONE(2.6151     SEC) : INIT BASIS
 -------------------------------------------
 RELAX CELL : 1
 RELAX IONS : 1 (in total: 1)
 -------------------------------------------
 ITER   ETOT(eV)       EDIFF(eV)      DRHO2      CG_ITER    TIME(S)    

===================================================================================
=   BAD TERMINATION OF ONE OF YOUR APPLICATION PROCESSES
=   RANK 0 PID 13193 RUNNING AT dell-Precision-7920-Tower
=   KILLED BY SIGNAL: 9 (Killed)
===================================================================================

===================================================================================
=   BAD TERMINATION OF ONE OF YOUR APPLICATION PROCESSES
=   RANK 1 PID 13194 RUNNING AT dell-Precision-7920-Tower
=   KILLED BY SIGNAL: 9 (Killed)
===================================================================================

===================================================================================
=   BAD TERMINATION OF ONE OF YOUR APPLICATION PROCESSES
=   RANK 2 PID 13195 RUNNING AT dell-Precision-7920-Tower
=   KILLED BY SIGNAL: 9 (Killed)
===================================================================================

===================================================================================
=   BAD TERMINATION OF ONE OF YOUR APPLICATION PROCESSES
=   RANK 3 PID 13196 RUNNING AT dell-Precision-7920-Tower
=   KILLED BY SIGNAL: 9 (Killed)
===================================================================================

===================================================================================
=   BAD TERMINATION OF ONE OF YOUR APPLICATION PROCESSES
=   RANK 4 PID 13197 RUNNING AT dell-Precision-7920-Tower
=   KILLED BY SIGNAL: 9 (Killed)
===================================================================================

===================================================================================
=   BAD TERMINATION OF ONE OF YOUR APPLICATION PROCESSES
=   RANK 5 PID 13198 RUNNING AT dell-Precision-7920-Tower
=   KILLED BY SIGNAL: 9 (Killed)
===================================================================================

===================================================================================
=   BAD TERMINATION OF ONE OF YOUR APPLICATION PROCESSES
=   RANK 6 PID 13199 RUNNING AT dell-Precision-7920-Tower
=   KILLED BY SIGNAL: 9 (Killed)
===================================================================================

===================================================================================
=   BAD TERMINATION OF ONE OF YOUR APPLICATION PROCESSES
=   RANK 7 PID 13200 RUNNING AT dell-Precision-7920-Tower
=   KILLED BY SIGNAL: 9 (Killed)
===================================================================================

===================================================================================
=   BAD TERMINATION OF ONE OF YOUR APPLICATION PROCESSES
=   RANK 8 PID 13201 RUNNING AT dell-Precision-7920-Tower
=   KILLED BY SIGNAL: 9 (Killed)
===================================================================================

===================================================================================
=   BAD TERMINATION OF ONE OF YOUR APPLICATION PROCESSES
=   RANK 9 PID 13202 RUNNING AT dell-Precision-7920-Tower
=   KILLED BY SIGNAL: 9 (Killed)
===================================================================================

===================================================================================
=   BAD TERMINATION OF ONE OF YOUR APPLICATION PROCESSES
=   RANK 10 PID 13203 RUNNING AT dell-Precision-7920-Tower
=   KILLED BY SIGNAL: 15 (Terminated)
===================================================================================

===================================================================================
=   BAD TERMINATION OF ONE OF YOUR APPLICATION PROCESSES
=   RANK 11 PID 13204 RUNNING AT dell-Precision-7920-Tower
=   KILLED BY SIGNAL: 9 (Killed)
===================================================================================

===================================================================================
=   BAD TERMINATION OF ONE OF YOUR APPLICATION PROCESSES
=   RANK 12 PID 13205 RUNNING AT dell-Precision-7920-Tower
=   KILLED BY SIGNAL: 9 (Killed)
===================================================================================

===================================================================================
=   BAD TERMINATION OF ONE OF YOUR APPLICATION PROCESSES
=   RANK 13 PID 13206 RUNNING AT dell-Precision-7920-Tower
=   KILLED BY SIGNAL: 9 (Killed)
===================================================================================

===================================================================================
=   BAD TERMINATION OF ONE OF YOUR APPLICATION PROCESSES
=   RANK 14 PID 13207 RUNNING AT dell-Precision-7920-Tower
=   KILLED BY SIGNAL: 9 (Killed)
===================================================================================

===================================================================================
=   BAD TERMINATION OF ONE OF YOUR APPLICATION PROCESSES
=   RANK 15 PID 13208 RUNNING AT dell-Precision-7920-Tower
=   KILLED BY SIGNAL: 9 (Killed)
===================================================================================
