 *********************************************************
 *                                                       *
 *                  WELCOME TO ABACUS v3.0               *
 *                                                       *
 *            'Atomic-orbital Based Ab-initio            *
 *                  Computation at UStc'                 *
 *                                                       *
 *          Website: http://abacus.ustc.edu.cn/          *
 *                                                       *
 *********************************************************
 Tue May  2 12:46:29 2023
 MAKE THE DIR         : OUT.blpstest/
Notice: symbol 'al_locpsp' is not an element symbol!!!! set the covalent radius to be 0.
 UNIFORM GRID DIM     : 27 * 27 * 45
 UNIFORM GRID DIM(BIG): 27 * 27 * 45
func,idXC_GGA_X_PBE 101
func,idXC_GGA_C_PBE 130
 DONE(0.144504   SEC) : SETUP UNITCELL
 DONE(0.196108   SEC) : SYMMETRY
 DONE(0.223421   SEC) : INIT K-POINTS
 ---------------------------------------------------------
 Self-consistent calculations for electrons
 ---------------------------------------------------------
 SPIN    KPOINTS         PROCESSORS  
 1       133             1           
 ---------------------------------------------------------
 Use plane wave basis
 ---------------------------------------------------------
 ELEMENT NATOM       XC          
 Al      2           
 ---------------------------------------------------------
 Initial plane wave basis and FFT box
 ---------------------------------------------------------
 DONE(0.228889   SEC) : INIT BASIS
 DONE(0.228917   SEC) : INIT PHI
 DONE(0.419859   SEC) : LOCAL POTENTIAL
 DONE(0.419899   SEC) : NON-LOCAL POTENTIAL
 START CHARGE      : atomic
 DONE(0.698222   SEC) : INIT POTENTIAL
 DONE(0.698516   SEC) : INIT OPTIMIZATION
Default type: double
 DONE(0.701231   SEC) : INIT KEDF
======================== Running OFDFT ========================
Iter        Etot(Ha)          Theta      PotNorm     deltaE(Ha)
0     -4.044234053539e+00   2.000e-01   1.961e-01   -4.044e+00  
1     -4.125294538890e+00   8.257e-02   3.224e-01   -8.106e-02  
2     -4.139529803059e+00   2.660e-02   3.116e-01   -1.424e-02  
3     -4.209758832532e+00   4.822e-02   8.056e-02   -7.023e-02  
4     -4.211499780536e+00   4.173e-03   7.753e-03   -1.741e-03  
5     -4.211535749213e+00   1.168e-03   3.280e-03   -3.597e-05  
6     -4.211539895302e+00   4.438e-04   2.271e-04   -4.146e-06  
7     -4.211539926439e+00   3.885e-05   9.020e-05   -3.114e-08  
8     -4.211539931017e+00   1.490e-05   4.124e-05   -4.578e-09  

  |CLASS_NAME---------|NAME---------------|TIME(Sec)-----|CALLS----|AVG------|PER%-------
                       total               20.72          21        0.99      1e+02     %
   Driver              driver_line         20.71          1         21        1e+02     %
   PW_Basis            setuptransform      0.1221         1         0.12      0.59      %
   ppcell_vl           init_vloc           0.1908         1         0.19      0.92      %
   Charge              atomic_rho          0.20594        1         0.21      0.99      %
   PW_Basis            recip2real          4.6175         2140      0.0022    22        %
   PW_Basis            gathers_scatterp    0.50653        2140      0.00024   2.4       %
   Potential           update_from_charge  11.918         165       0.072     58        %
   Potential           cal_v_eff           11.915         165       0.072     58        %
   H_Hartree_pw        v_hartree           1.0495         165       0.0064    5.1       %
   PW_Basis            real2recip          5.0125         2140      0.0023    24        %
   PW_Basis            gatherp_scatters    0.43394        2140      0.0002    2.1       %
   PotXC               cal_v_eff           10.807         165       0.065     52        %
   XC_Functional       v_xc                10.051         83        0.12      49        %
   XC_Functional       v_xc_libxc          10.711         165       0.065     52        %
   ESolver_OF          Run                 20.018         1         20        97        %
   KEDF_LKT            LKT_potential       6.6604         164       0.041     32        %
   KEDF_vW             vw_potential        0.98995        164       0.006     4.8       %
 ----------------------------------------------------------------------------------------

 START  Time  : Tue May  2 12:46:29 2023
 FINISH Time  : Tue May  2 12:46:50 2023
 TOTAL  Time  : 21
 SEE INFORMATION IN : OUT.blpstest/
