 *********************************************************
 *                                                       *
 *                  WELCOME TO ABACUS v3.0               *
 *                                                       *
 *            'Atomic-orbital Based Ab-initio            *
 *                  Computation at UStc'                 *
 *                                                       *
 *          Website: http://abacus.ustc.edu.cn/          *
 *                                                       *
 *********************************************************
 Mon Apr 17 15:14:00 2023
 MAKE THE DIR         : OUT.blpstest/
Notice: symbol 'mg_locpsp' is not an element symbol!!!! set the covalent radius to be 0.
 UNIFORM GRID DIM     : 30 * 30 * 50
 UNIFORM GRID DIM(BIG): 30 * 30 * 50
func,idXC_GGA_X_PBE 101
func,idXC_GGA_C_PBE 130
 DONE(0.192567   SEC) : SETUP UNITCELL
 DONE(0.247873   SEC) : SYMMETRY
 DONE(0.273747   SEC) : INIT K-POINTS
 ---------------------------------------------------------
 Self-consistent calculations for electrons
 ---------------------------------------------------------
 SPIN    KPOINTS         PROCESSORS  
 1       133             1           
 ---------------------------------------------------------
 Use plane wave basis
 ---------------------------------------------------------
 ELEMENT NATOM       XC          
 Mg      2           
 ---------------------------------------------------------
 Initial plane wave basis and FFT box
 ---------------------------------------------------------
 DONE(0.281493   SEC) : INIT BASIS
 DONE(0.281517   SEC) : INIT PHI
 DONE(0.551554   SEC) : LOCAL POTENTIAL
 DONE(0.55159    SEC) : NON-LOCAL POTENTIAL
 START CHARGE      : atomic
 DONE(0.961832   SEC) : INIT POTENTIAL
 DONE(0.962191   SEC) : INIT OPTIMIZATION
 DONE(0.965167   SEC) : INIT KEDF
======================== Running OFDFT ========================
Iter        Etot(Ha)          Theta      PotNorm     deltaE(Ha)
0     -1.686339758210e+00   2.000e-01   1.154e-01   -1.686e+00  
1     -1.686478923544e+00   5.038e-03   1.168e-01   -1.392e-04  
2     -1.777336022410e+00   1.038e-01   7.897e-02   -9.086e-02  
3     -1.779848632579e+00   1.066e-02   1.562e-02   -2.513e-03  
4     -1.780099051749e+00   6.045e-03   9.079e-03   -2.504e-04  
5     -1.780157676820e+00   1.835e-03   3.717e-03   -5.863e-05  
6     -1.780173511311e+00   1.273e-03   3.611e-03   -1.583e-05  
7     -1.780191101359e+00   2.345e-03   8.226e-04   -1.759e-05  
8     -1.780191648140e+00   2.641e-04   3.090e-04   -5.468e-07  
9     -1.780191687621e+00   5.679e-05   6.955e-05   -3.948e-08  

  |CLASS_NAME---------|NAME---------------|TIME(Sec)-----|CALLS----|AVG------|PER%-------
                       total               34.986         21        1.7       1e+02     %
   Driver              driver_line         34.974         1         35        1e+02     %
   PW_Basis            setuptransform      0.16316        1         0.16      0.47      %
   ppcell_vl           init_vloc           0.26995        1         0.27      0.77      %
   Charge              atomic_rho          0.29032        1         0.29      0.83      %
   PW_Basis            recip2real          6.1593         2123      0.0029    18        %
   PW_Basis            gathers_scatterp    0.84684        2123      0.0004    2.4       %
   Potential           init_pot            0.11698        1         0.12      0.33      %
   Potential           update_from_charge  22.024         236       0.093     63        %
   Potential           cal_v_eff           22.02          236       0.093     63        %
   H_Hartree_pw        v_hartree           2.0965         236       0.0089    6         %
   PW_Basis            real2recip          8.0426         2593      0.0031    23        %
   PW_Basis            gatherp_scatters    0.77365        2593      0.0003    2.2       %
   PotXC               cal_v_eff           19.809         236       0.084     57        %
   XC_Functional       v_xc                17.07          118       0.14      49        %
   XC_Functional       v_xc_libxc          19.597         236       0.083     56        %
   ESolver_OF          Run                 34.02          1         34        97        %
   KEDF_TF             tf_potential        1.803          235       0.0077    5.2       %
   KEDF_WT             wt_potential        7.6228         235       0.032     22        %
   KEDF_vW             vw_potential        1.7109         235       0.0073    4.9       %
 ----------------------------------------------------------------------------------------

 START  Time  : Mon Apr 17 15:14:00 2023
 FINISH Time  : Mon Apr 17 15:14:35 2023
 TOTAL  Time  : 35
 SEE INFORMATION IN : OUT.blpstest/
