 *********************************************************
 *                                                       *
 *                  WELCOME TO ABACUS v3.0               *
 *                                                       *
 *            'Atomic-orbital Based Ab-initio            *
 *                  Computation at UStc'                 *
 *                                                       *
 *          Website: http://abacus.ustc.edu.cn/          *
 *                                                       *
 *********************************************************
 Tue May  2 12:47:56 2023
 MAKE THE DIR         : OUT.blpstest/
Notice: symbol 'Li_locpsp' is not an element symbol!!!! set the covalent radius to be 0.
 UNIFORM GRID DIM     : 32 * 32 * 32
 UNIFORM GRID DIM(BIG): 32 * 32 * 32
func,idXC_GGA_X_PBE 101
func,idXC_GGA_C_PBE 130
 DONE(0.16078    SEC) : SETUP UNITCELL
 DONE(0.214519   SEC) : SYMMETRY
 DONE(0.214755   SEC) : INIT K-POINTS
 ---------------------------------------------------------
 Self-consistent calculations for electrons
 ---------------------------------------------------------
 SPIN    KPOINTS         PROCESSORS  
 1       1               1           
 ---------------------------------------------------------
 Use plane wave basis
 ---------------------------------------------------------
 ELEMENT NATOM       XC          
 Li      1           
 ---------------------------------------------------------
 Initial plane wave basis and FFT box
 ---------------------------------------------------------
 DONE(0.216372   SEC) : INIT BASIS
 DONE(0.2164     SEC) : INIT PHI
 DONE(0.276884   SEC) : LOCAL POTENTIAL
 DONE(0.276919   SEC) : NON-LOCAL POTENTIAL
 START CHARGE      : atomic
 DONE(0.417352   SEC) : INIT POTENTIAL
 DONE(0.417578   SEC) : INIT OPTIMIZATION
Default type: double
 DONE(0.42018    SEC) : INIT KEDF
======================== Running OFDFT ========================
Iter        Etot(Ha)          Theta      PotNorm     deltaE(Ha)
0     -2.676309793759e-01   2.000e-01   6.185e-02   -2.676e-01  
1     -2.760990197839e-01   6.820e-02   2.798e-02   -8.468e-03  
2     -2.765435879271e-01   1.102e-02   6.722e-03   -4.446e-04  
3     -2.765655966850e-01   3.690e-03   2.900e-03   -2.201e-05  
4     -2.765689649421e-01   1.087e-03   9.292e-04   -3.368e-06  
5     -2.765694926539e-01   4.887e-04   6.487e-04   -5.277e-07  
6     -2.765697832709e-01   5.539e-04   5.015e-05   -2.906e-07  

  |CLASS_NAME---------|NAME---------------|TIME(Sec)-----|CALLS----|AVG------|PER%-------
                       total               17.562         21        0.84      1e+02     %
   Driver              driver_line         17.552         1         18        1e+02     %
   PW_Basis            setuptransform      0.13844        1         0.14      0.79      %
   PW_Basis            recip2real          3.1725         2075      0.0015    18        %
   PW_Basis            gathers_scatterp    0.46602        2075      0.00022   2.7       %
   Potential           update_from_charge  10.341         160       0.065     59        %
   Potential           cal_v_eff           10.338         160       0.065     59        %
   H_Hartree_pw        v_hartree           0.816          160       0.0051    4.6       %
   PW_Basis            real2recip          3.3505         2075      0.0016    19        %
   PW_Basis            gatherp_scatters    0.42038        2075      0.0002    2.4       %
   PotXC               cal_v_eff           9.4598         160       0.059     54        %
   XC_Functional       v_xc                8.6083         80        0.11      49        %
   XC_Functional       v_xc_libxc          9.3265         160       0.058     53        %
   ESolver_OF          Run                 17.141         1         17        98        %
   KEDF_LKT            LKT_potential       5.6555         159       0.036     32        %
   KEDF_vW             vw_potential        0.71175        159       0.0045    4.1       %
 ----------------------------------------------------------------------------------------

 START  Time  : Tue May  2 12:47:56 2023
 FINISH Time  : Tue May  2 12:48:14 2023
 TOTAL  Time  : 18
 SEE INFORMATION IN : OUT.blpstest/
