                                                                                     
                             WELCOME TO ABACUS v3.0                                  
                                                                                     
               'Atomic-orbital Based Ab-initio Computation at UStc'                  
                                                                                     
                     Website: http://abacus.ustc.edu.cn/                             
                                                                                     
    Version: Parallel, in development
    Processor Number is 1
    Start Time is Mon May 15 13:20:48 2023
                                                                                     
 ------------------------------------------------------------------------------------

 READING GENERAL INFORMATION
                           global_out_dir = OUT.oftest/
                           global_in_card = INPUT
                               pseudo_dir = 
                              orbital_dir = 
                                    DRANK = 1
                                    DSIZE = 1
                                   DCOLOR = 1
                                    GRANK = 1
                                    GSIZE = 1
 The esolver type has been set to : ofdft




 >>>>>>>>>>>>>>>>>>>>>>>>>>>>>>>>>>>>>>>>>>>>>>>>>>>>>>>>>>>>>>>>>>>>>>
 |                                                                    |
 | Reading atom information in unitcell:                              |
 | From the input file and the structure file we know the number of   |
 | different elments in this unitcell, then we list the detail        |
 | information for each element, especially the zeta and polar atomic |
 | orbital number for each element. The total atom number is counted. |
 | We calculate the nearest atom distance for each atom and show the  |
 | Cartesian and Direct coordinates for each atom. We list the file   |
 | address for atomic orbitals. The volume and the lattice vectors    |
 | in real and reciprocal space is also shown.                        |
 |                                                                    |
 <<<<<<<<<<<<<<<<<<<<<<<<<<<<<<<<<<<<<<<<<<<<<<<<<<<<<<<<<<<<<<<<<<<<<<




 READING UNITCELL INFORMATION
                                    ntype = 2
                 atom label for species 1 = Li
                 atom label for species 2 = Al
                  lattice constant (Bohr) = 1.88973
              lattice constant (Angstrom) = 1

 READING ATOM TYPE 1
                               atom label = Li
                      L=0, number of zeta = 1
                      L=1, number of zeta = 1
                      L=2, number of zeta = 1
             number of atom for this type = 8
                      start magnetization = FALSE
                      start magnetization = FALSE
                      start magnetization = FALSE
                      start magnetization = FALSE
                      start magnetization = FALSE
                      start magnetization = FALSE
                      start magnetization = FALSE
                      start magnetization = FALSE

 READING ATOM TYPE 2
                               atom label = Al
                      L=0, number of zeta = 1
                      L=1, number of zeta = 1
                      L=2, number of zeta = 1
             number of atom for this type = 4
                      start magnetization = FALSE
                      start magnetization = FALSE
                      start magnetization = FALSE
                      start magnetization = FALSE

                        TOTAL ATOM NUMBER = 12

 DIRECT COORDINATES
         atom                   x                   y                   z                 mag                  vx                  vy                  vz
     taud_Li1                 0.5            0.258607                0.25                   0                   0                   0                   0
     taud_Li2                   0            0.241393                0.75                   0                   0                   0                   0
     taud_Li3                   0            0.410138                0.25                   0                   0                   0                   0
     taud_Li4                 0.5           0.0898618                0.75                   0                   0                   0                   0
     taud_Li5                   0            0.758607                0.25                   0                   0                   0                   0
     taud_Li6                 0.5            0.741393                0.75                   0                   0                   0                   0
     taud_Li7                 0.5            0.910138                0.25                   0                   0                   0                   0
     taud_Li8                   0            0.589862                0.75                   0                   0                   0                   0
     taud_Al1                   0            0.074982                0.25                   0                   0                   0                   0
     taud_Al2                 0.5            0.425018                0.75                   0                   0                   0                   0
     taud_Al3                 0.5            0.574982                0.25                   0                   0                   0                   0
     taud_Al4                   0            0.925018                0.75                   0                   0                   0                   0


                          Volume (Bohr^3) = 1325.12
                             Volume (A^3) = 196.363

 Lattice vectors: (Cartesian coordinate: in unit of a_0)
             +4.58458                  +0                  +0
                   +0            +9.66648                  +0
                   +0                  +0             +4.4309
 Reciprocal vectors: (Cartesian coordinate: in unit of 2 pi/a_0)
            +0.218122                  -0                  +0
                   -0            +0.10345                  -0
                   +0                  -0           +0.225688




 >>>>>>>>>>>>>>>>>>>>>>>>>>>>>>>>>>>>>>>>>>>>>>>>>>>>>>>>>>>>>>>>>>>>>>
 |                                                                    |
 | Reading pseudopotentials files:                                    |
 | The pseudopotential file is in UPF format. The 'NC' indicates that |
 | the type of pseudopotential is 'norm conserving'. Functional of    |
 | exchange and correlation is decided by 4 given parameters in UPF   |
 | file.  We also read in the 'core correction' if there exists.      |
 | Also we can read the valence electrons number and the maximal      |
 | angular momentum used in this pseudopotential. We also read in the |
 | trail wave function, trail atomic density and local-pseudopotential|
 | on logrithmic grid. The non-local pseudopotential projector is also|
 | read in if there is any.                                           |
 |                                                                    |
 <<<<<<<<<<<<<<<<<<<<<<<<<<<<<<<<<<<<<<<<<<<<<<<<<<<<<<<<<<<<<<<<<<<<<<




                PAO radial cut off (Bohr) = 16

 Read in pseudopotential file is li.gga.psp.1
                     pseudopotential type = 
          exchange-correlation functional = XC_GGA_X_PBE+XC_GGA_C_PBE
                 nonlocal core correction = 0
                        valence electrons = 1
                                     lmax = 0
                           number of zeta = 0
                     number of projectors = 0
                PAO radial cut off (Bohr) = 16

 Read in pseudopotential file is al.gga.psp
                     pseudopotential type = 
          exchange-correlation functional = XC_GGA_X_PBE+XC_GGA_C_PBE
                 nonlocal core correction = 0
                        valence electrons = 3
                                     lmax = 0
                           number of zeta = 0
                     number of projectors = 0
Notice: symbol 'Li_locpsp' is not an element symbol!!!! set the covalent radius to be 0.
Notice: symbol 'al_locpsp' is not an element symbol!!!! set the covalent radius to be 0.
     initial pseudo atomic orbital number = 0
                                   NLOCAL = 108




 >>>>>>>>>>>>>>>>>>>>>>>>>>>>>>>>>>>>>>>>>>>>>>>>>>>>>>>>>>>>>>>>>>>>>>
 |                                                                    |
 | Setup plane waves of charge/potential:                             |
 | Use the energy cutoff and the lattice vectors to generate the      |
 | dimensions of FFT grid. The number of FFT grid on each processor   |
 | is 'nrxx'. The number of plane wave basis in reciprocal space is   |
 | different for charege/potential and wave functions. We also set    |
 | the 'sticks' for the parallel of FFT. The number of plane waves    |
 | is 'npw' in each processor.                                        |
 <<<<<<<<<<<<<<<<<<<<<<<<<<<<<<<<<<<<<<<<<<<<<<<<<<<<<<<<<<<<<<<<<<<<<<





 SETUP THE PLANE WAVE BASIS
 energy cutoff for charge/potential (unit:Ry) = 235.196
          [fft grid for charge/potential] = 45, 90, 45
                      [fft grid division] = 1, 1, 1
      [big fft grid for charge/potential] = 45, 90, 45
                                     nbxx = 182250
                                     nrxx = 182250

 SETUP PLANE WAVES FOR CHARGE/POTENTIAL
                    number of plane waves = 182250
                         number of sticks = 4050

 PARALLEL PW FOR CHARGE/POTENTIAL
     PROC   COLUMNS(POT)             PW
        1           4050         182250
 --------------- sum -------------------
        1           4050         182250
                            number of |g| = 24334
                                  max |g| = 69.3515
                                  min |g| = 0

 SETUP THE ELECTRONS NUMBER
            electron number of element Li = 1
      total electron number of element Li = 8
            electron number of element Al = 3
      total electron number of element Al = 12
            AUTOSET number of electrons:  = 20
 DONE : SETUP UNITCELL Time : 1.88245 (SEC)





 >>>>>>>>>>>>>>>>>>>>>>>>>>>>>>>>>>>>>>>>>>>>>>>>>>>>>>>>>>>>>>>>>>>>>>
 |                                                                    |
 | Doing symmetry analysis:                                           |
 | We calculate the norm of 3 vectors and the angles between them,    |
 | the type of Bravais lattice is given. We can judge if the unticell |
 | is a primitive cell. Finally we give the point group operation for |
 | this unitcell. We we use the point group operations to do symmetry |
 | analysis on given k-point mesh and the charge density.             |
 |                                                                    |
 <<<<<<<<<<<<<<<<<<<<<<<<<<<<<<<<<<<<<<<<<<<<<<<<<<<<<<<<<<<<<<<<<<<<<<




 LATTICE VECTORS: (CARTESIAN COORDINATE: IN UNIT OF A0)
             +4.58458                  +0                  +0
                   +0            +9.66648                  +0
                   +0                  +0             +4.4309
                       right hand lattice = 1
                                   NORM_A = 4.58458
                                   NORM_B = 9.66648
                                   NORM_C = 4.4309
                           ALPHA (DEGREE) = 90
                           BETA  (DEGREE) = 90
                           GAMMA (DEGREE) = 90
                             BRAVAIS TYPE = 8
                     BRAVAIS LATTICE NAME = 08. Orthorhombic P(simple)
                                    IBRAV = 8
                                  BRAVAIS = SIMPLE ORTHORHOMBIC CELL
                       LATTICE CONSTANT A = 4.58458
                                B/A RATIO = 2.10848
                                C/A RATIO = 0.966478
                                    ibrav = 8
                        ROTATION MATRICES = 8
              PURE POINT GROUP OPERATIONS = 8
                   SPACE GROUP OPERATIONS = 8
                                       C2 = 3
                                       C3 = 0
                                       C4 = 0
                                       C6 = 0
                                       S1 = 3
                                       S3 = 0
                                       S4 = 0
                                       S6 = 0
                              POINT GROUP = D_2h
Warning : If the optimal symmetric configuration is not the input configuration, 
you have to manually change configurations, ABACUS would only calculate the input structure.
 DONE : SYMMETRY Time : 1.94473 (SEC)





 >>>>>>>>>>>>>>>>>>>>>>>>>>>>>>>>>>>>>>>>>>>>>>>>>>>>>>>>>>>>>>>>>>>>>>
 |                                                                    |
 | Setup K-points                                                     |
 | We setup the k-points according to input parameters.               |
 | The reduced k-points are set according to symmetry operations.     |
 | We treat the spin as another set of k-points.                      |
 |                                                                    |
 <<<<<<<<<<<<<<<<<<<<<<<<<<<<<<<<<<<<<<<<<<<<<<<<<<<<<<<<<<<<<<<<<<<<<<





 SETUP K-POINTS
                                    nspin = 1
                   Input type of k points = Monkhorst-Pack(Gamma)
                                   nkstot = 1
                               nkstot_ibz = 1
      IBZ             DirectX             DirectY             DirectZ              Weight    ibz2bz
        1                   0                   0                   0                   1         0
                               nkstot now = 1

  KPOINTS            DIRECT_X            DIRECT_Y            DIRECT_Z              WEIGHT
        1                   0                   0                   0                   1

           k-point number in this process = 1
       minimum distributed K point number = 1

  KPOINTS         CARTESIAN_X         CARTESIAN_Y         CARTESIAN_Z              WEIGHT
        1                   0                   0                   0                   2

  KPOINTS            DIRECT_X            DIRECT_Y            DIRECT_Z              WEIGHT
        1                   0                   0                   0                   2
 DONE : INIT K-POINTS Time : 1.94574 (SEC)

 DONE : INIT BASIS Time : 2.24827 (SEC)

 DONE : INIT PHI Time : 2.24865 (SEC)


 SETUP NONLOCAL PSEUDOPOTENTIALS IN PLANE WAVE BASIS
 Li non-local projectors:
 Al non-local projectors:
      TOTAL NUMBER OF NONLOCAL PROJECTORS = 0

 nhm = 0, not allocate some matrix. DONE : LOCAL POTENTIAL Time : 7.49363 (SEC)


 Init Non-Local PseudoPotential table : 
 Init Non-Local-Pseudopotential done.
 DONE : NON-LOCAL POTENTIAL Time : 7.49405 (SEC)

Successful completion of Potential's registration : local
Successful completion of Potential's registration : hartree
Successful completion of Potential's registration : xc
                                 init_chg = atomic
 DONE : INIT POTENTIAL Time : 14.972 (SEC)

 DONE : INIT OPTIMIZATION Time : 14.9759 (SEC)

 DONE : INIT KEDF Time : 14.9961 (SEC)


 charge density convergence is achieved
 final etot is -292.737 eV



 ><><><><><><><><><><><><><><><><><><><><><><

    TOTAL-FORCE (eV/Angstrom)

 ><><><><><><><><><><><><><><><><><><><><><><

     atom              x              y              z
      Li1              0    -0.56546994    +0.00002525
      Li2              0    +0.56543781    -0.00005914
      Li3              0    -0.16990486    +0.00006932
      Li4              0    +0.16987550    -0.00002088
      Li5              0    -0.56543781    +0.00005914
      Li6              0    +0.56546994    -0.00002525
      Li7              0    -0.16987550    +0.00002088
      Li8              0    +0.16990486    -0.00006932
      Al1              0    +0.35792189    +0.00007828
      Al2              0    -0.35794930    -0.00004654
      Al3              0    +0.35794930    +0.00004654
      Al4              0    -0.35792189    -0.00007828


 ><><><><><><><><><><><><><><><><><><><><><><

 TOTAL-STRESS (KBAR)

 ><><><><><><><><><><><><><><><><><><><><><><

      -96.793032      +0.000000      +0.000000
       +0.000000     -65.712352      +0.000004
       +0.000000      +0.000004     -26.645864
 TOTAL-PRESSURE: -63.050416 KBAR


 --------------------------------------------
 !FINAL_ETOT_IS -292.7367517440085294 eV
 --------------------------------------------






  |CLASS_NAME---------|NAME---------------|TIME(Sec)-----|CALLS----|AVG------|PER%-------
                                      total     +327.16174        21    +15.58   +100.00%
                 Driver         driver_line     +327.09337         1   +327.09    +99.98%
               PW_Basis      setuptransform       +1.71366         1     +1.71     +0.52%
               PW_Basis  setup_struc_factor       +0.30220         1     +0.30     +0.09%
              ppcell_vl           init_vloc       +5.24438         1     +5.24     +1.60%
                 Charge          atomic_rho       +6.50915         1     +6.51     +1.99%
               PW_Basis          recip2real      +95.49823      2906     +0.03    +29.19%
               PW_Basis    gathers_scatterp      +13.77183      2906     +0.00     +4.21%
              Potential            init_pot       +0.93720         1     +0.94     +0.29%
              Potential  update_from_charge     +176.58330       223     +0.79    +53.97%
              Potential           cal_v_eff     +176.53795       223     +0.79    +53.96%
           H_Hartree_pw           v_hartree      +18.35352       223     +0.08     +5.61%
               PW_Basis          real2recip      +86.63522      2901     +0.03    +26.48%
               PW_Basis    gatherp_scatters       +9.31330      2901     +0.00     +2.85%
                  PotXC           cal_v_eff     +157.32359       223     +0.71    +48.09%
          XC_Functional                v_xc     +152.67495       112     +1.36    +46.67%
          XC_Functional          v_xc_libxc     +155.71638       223     +0.70    +47.60%
             ESolver_OF                 Run     +302.74262         1   +302.74    +92.54%
               KEDF_LKT       LKT_potential     +102.61537       222     +0.46    +31.37%
                KEDF_vW        vw_potential      +16.91236       222     +0.08     +5.17%
                 Forces       cal_force_loc       +0.29433         1     +0.29     +0.09%
                 Forces        cal_force_ew       +0.26483         1     +0.26     +0.08%
           OF_Stress_PW          cal_stress       +8.30669         1     +8.31     +2.54%
            Stress_Func          stress_ewa       +0.26286         1     +0.26     +0.08%
            Stress_Func          stress_gga       +0.66382         1     +0.66     +0.20%
            Stress_Func          stress_loc       +7.35191         1     +7.35     +2.25%
 ----------------------------------------------------------------------------------------

 CLASS_NAME---------|NAME---------------|MEMORY(MB)--------
                                         +19.5325
             PW_Basis           struc_fac        +5.5618
               Charge                 rho        +1.3905
               Charge            rho_save        +1.3905
               Charge                rhog        +1.3905
               Charge           rhog_save        +1.3905
               Charge               kin_r        +1.3905
               Charge          kin_r_save        +1.3905
               Charge            rho_core        +1.3905
               Charge           rhog_core        +1.3905
            Potential   v_effective_fixed        +1.3905
            Potential              vr_eff        +1.3905
 ----------------------------------------------------------

 Start  Time  : Mon May 15 13:20:48 2023
 Finish Time  : Mon May 15 13:26:15 2023
 Total  Time  : 0 h 5 mins 27 secs 
