 *********************************************************
 *                                                       *
 *                  WELCOME TO ABACUS v3.0               *
 *                                                       *
 *            'Atomic-orbital Based Ab-initio            *
 *                  Computation at UStc'                 *
 *                                                       *
 *          Website: http://abacus.ustc.edu.cn/          *
 *                                                       *
 *********************************************************
 Wed Apr 26 00:06:32 2023
 MAKE THE DIR         : OUT.oftest/
Notice: symbol 'al_locpsp' is not an element symbol!!!! set the covalent radius to be 0.
 UNIFORM GRID DIM     : 45 * 45 * 45
 UNIFORM GRID DIM(BIG): 45 * 45 * 45
func,idXC_GGA_X_PBE 101
func,idXC_GGA_C_PBE 130
 DONE(0.280016   SEC) : SETUP UNITCELL
 DONE(0.336817   SEC) : SYMMETRY
 DONE(0.337074   SEC) : INIT K-POINTS
 ---------------------------------------------------------
 Self-consistent calculations for electrons
 ---------------------------------------------------------
 SPIN    KPOINTS         PROCESSORS  
 1       1               1           
 ---------------------------------------------------------
 Use plane wave basis
 ---------------------------------------------------------
 ELEMENT NATOM       XC          
 Al      1           
 ---------------------------------------------------------
 Initial plane wave basis and FFT box
 ---------------------------------------------------------
 DONE(0.34118    SEC) : INIT BASIS
 DONE(0.341215   SEC) : INIT PHI
 DONE(0.473799   SEC) : LOCAL POTENTIAL
 DONE(0.473839   SEC) : NON-LOCAL POTENTIAL
 START CHARGE      : atomic
 DONE(0.769322   SEC) : INIT POTENTIAL
 DONE(0.769764   SEC) : INIT OPTIMIZATION
Default type: double
nnode = 10
nlayer = 3
feg_net_F = 0.540933
 DONE(0.8467     SEC) : INIT KEDF
======================== Running OFDFT ========================
Iter        Etot(Ha)          Theta      PotNorm     deltaE(Ha)
0     -2.018412665737e+00   2.000e-01   1.651e-01   -2.018e+00  
1     -2.086452877468e+00   7.786e-02   1.310e-01   -6.804e-02  
2     -2.088198284270e+00   6.024e-03   1.075e-01   -1.745e-03  
3     -2.090569504641e+00   2.023e-02   2.632e-02   -2.371e-03  
4     -2.090660919081e+00   2.188e-03   1.398e-02   -9.141e-05  
5     -2.090705897054e+00   2.020e-03   1.306e-02   -4.498e-05  
6     -2.090718073222e+00   4.403e-04   7.586e-03   -1.218e-05  
7     -2.090749871093e+00   2.856e-03   1.364e-03   -3.180e-05  
8     -2.090750429428e+00   2.694e-04   1.135e-03   -5.583e-07  
9     -2.090750564060e+00   5.512e-05   6.413e-04   -1.346e-07  

  |CLASS_NAME---------|NAME---------------|TIME(Sec)-----|CALLS----|AVG------|PER%-------
                       total               549.09         21        26        1e+02     %
   Driver              driver_line         549.08         1         5.5e+02   1e+02     %
   PW_Basis            setuptransform      0.23464        1         0.23      0.043     %
   ppcell_vl           init_vloc           0.13241        1         0.13      0.024     %
   Charge              atomic_rho          0.14179        1         0.14      0.026     %
   PW_Basis            recip2real          14.07          5228      0.0027    2.6       %
   PW_Basis            gathers_scatterp    1.2146         5228      0.00023   0.22      %
   Potential           init_pot            0.14825        1         0.15      0.027     %
   Potential           update_from_charge  21.325         262       0.081     3.9       %
   Potential           cal_v_eff           21.318         262       0.081     3.9       %
   H_Hartree_pw        v_hartree           1.6905         262       0.0065    0.31      %
   PW_Basis            real2recip          14.539         5228      0.0028    2.6       %
   PW_Basis            gatherp_scatters    0.79316        5228      0.00015   0.14      %
   PotXC               cal_v_eff           19.564         262       0.075     3.6       %
   XC_Functional       v_xc                272.76         131       2.1       50        %
   XC_Functional       v_xc_libxc          19.536         262       0.075     3.6       %
   ESolver_OF          Run                 548.24         1         5.5e+02   1e+02     %
   KEDF_vW             vw_potential        1.6337         261       0.0063    0.3       %
 ----------------------------------------------------------------------------------------

 START  Time  : Wed Apr 26 00:06:32 2023
 FINISH Time  : Wed Apr 26 00:15:41 2023
 TOTAL  Time  : 5.5e+02
 SEE INFORMATION IN : OUT.oftest/
