                                                                                     
                             WELCOME TO ABACUS v3.0                                  
                                                                                     
               'Atomic-orbital Based Ab-initio Computation at UStc'                  
                                                                                     
                     Website: http://abacus.ustc.edu.cn/                             
                                                                                     
    Version: Parallel, in development
    Processor Number is 1
    Start Time is Mon May 15 13:21:39 2023
                                                                                     
 ------------------------------------------------------------------------------------

 READING GENERAL INFORMATION
                           global_out_dir = OUT.oftest/
                           global_in_card = INPUT
                               pseudo_dir = 
                              orbital_dir = 
                                    DRANK = 1
                                    DSIZE = 1
                                   DCOLOR = 1
                                    GRANK = 1
                                    GSIZE = 1
 The esolver type has been set to : ofdft




 >>>>>>>>>>>>>>>>>>>>>>>>>>>>>>>>>>>>>>>>>>>>>>>>>>>>>>>>>>>>>>>>>>>>>>
 |                                                                    |
 | Reading atom information in unitcell:                              |
 | From the input file and the structure file we know the number of   |
 | different elments in this unitcell, then we list the detail        |
 | information for each element, especially the zeta and polar atomic |
 | orbital number for each element. The total atom number is counted. |
 | We calculate the nearest atom distance for each atom and show the  |
 | Cartesian and Direct coordinates for each atom. We list the file   |
 | address for atomic orbitals. The volume and the lattice vectors    |
 | in real and reciprocal space is also shown.                        |
 |                                                                    |
 <<<<<<<<<<<<<<<<<<<<<<<<<<<<<<<<<<<<<<<<<<<<<<<<<<<<<<<<<<<<<<<<<<<<<<




 READING UNITCELL INFORMATION
                                    ntype = 2
                 atom label for species 1 = Li
                 atom label for species 2 = Al
                  lattice constant (Bohr) = 1.88973
              lattice constant (Angstrom) = 1

 READING ATOM TYPE 1
                               atom label = Li
                      L=0, number of zeta = 1
                      L=1, number of zeta = 1
                      L=2, number of zeta = 1
             number of atom for this type = 2
                      start magnetization = FALSE
                      start magnetization = FALSE

 READING ATOM TYPE 2
                               atom label = Al
                      L=0, number of zeta = 1
                      L=1, number of zeta = 1
                      L=2, number of zeta = 1
             number of atom for this type = 6
                      start magnetization = FALSE
                      start magnetization = FALSE
                      start magnetization = FALSE
                      start magnetization = FALSE
                      start magnetization = FALSE
                      start magnetization = FALSE

                        TOTAL ATOM NUMBER = 8

 DIRECT COORDINATES
         atom                   x                   y                   z                 mag                  vx                  vy                  vz
     taud_Li1                   0                   0                   0                   0                   0                   0                   0
     taud_Li2                 0.5                 0.5                 0.5                   0                   0                   0                   0
     taud_Al1                   0                 0.5                0.25                   0                   0                   0                   0
     taud_Al2                 0.5                   0                0.25                   0                   0                   0                   0
     taud_Al3                 0.5                 0.5                   0                   0                   0                   0                   0
     taud_Al4                 0.5                   0                0.75                   0                   0                   0                   0
     taud_Al5                   0                 0.5                0.75                   0                   0                   0                   0
     taud_Al6                   0                   0                 0.5                   0                   0                   0                   0


                          Volume (Bohr^3) = 861.989
                             Volume (A^3) = 127.733

 Lattice vectors: (Cartesian coordinate: in unit of a_0)
              +4.0033                  +0                  +0
                   +0             +4.0033                  +0
                   +0                  +0            +7.97021
 Reciprocal vectors: (Cartesian coordinate: in unit of 2 pi/a_0)
            +0.249794                  -0                  +0
                   -0           +0.249794                  -0
                   +0                  -0           +0.125467




 >>>>>>>>>>>>>>>>>>>>>>>>>>>>>>>>>>>>>>>>>>>>>>>>>>>>>>>>>>>>>>>>>>>>>>
 |                                                                    |
 | Reading pseudopotentials files:                                    |
 | The pseudopotential file is in UPF format. The 'NC' indicates that |
 | the type of pseudopotential is 'norm conserving'. Functional of    |
 | exchange and correlation is decided by 4 given parameters in UPF   |
 | file.  We also read in the 'core correction' if there exists.      |
 | Also we can read the valence electrons number and the maximal      |
 | angular momentum used in this pseudopotential. We also read in the |
 | trail wave function, trail atomic density and local-pseudopotential|
 | on logrithmic grid. The non-local pseudopotential projector is also|
 | read in if there is any.                                           |
 |                                                                    |
 <<<<<<<<<<<<<<<<<<<<<<<<<<<<<<<<<<<<<<<<<<<<<<<<<<<<<<<<<<<<<<<<<<<<<<




                PAO radial cut off (Bohr) = 16

 Read in pseudopotential file is li.gga.psp.1
                     pseudopotential type = 
          exchange-correlation functional = XC_GGA_X_PBE+XC_GGA_C_PBE
                 nonlocal core correction = 0
                        valence electrons = 1
                                     lmax = 0
                           number of zeta = 0
                     number of projectors = 0
                PAO radial cut off (Bohr) = 16

 Read in pseudopotential file is al.gga.psp
                     pseudopotential type = 
          exchange-correlation functional = XC_GGA_X_PBE+XC_GGA_C_PBE
                 nonlocal core correction = 0
                        valence electrons = 3
                                     lmax = 0
                           number of zeta = 0
                     number of projectors = 0
Notice: symbol 'Li_locpsp' is not an element symbol!!!! set the covalent radius to be 0.
Notice: symbol 'al_locpsp' is not an element symbol!!!! set the covalent radius to be 0.
     initial pseudo atomic orbital number = 0
                                   NLOCAL = 72




 >>>>>>>>>>>>>>>>>>>>>>>>>>>>>>>>>>>>>>>>>>>>>>>>>>>>>>>>>>>>>>>>>>>>>>
 |                                                                    |
 | Setup plane waves of charge/potential:                             |
 | Use the energy cutoff and the lattice vectors to generate the      |
 | dimensions of FFT grid. The number of FFT grid on each processor   |
 | is 'nrxx'. The number of plane wave basis in reciprocal space is   |
 | different for charege/potential and wave functions. We also set    |
 | the 'sticks' for the parallel of FFT. The number of plane waves    |
 | is 'npw' in each processor.                                        |
 <<<<<<<<<<<<<<<<<<<<<<<<<<<<<<<<<<<<<<<<<<<<<<<<<<<<<<<<<<<<<<<<<<<<<<





 SETUP THE PLANE WAVE BASIS
 energy cutoff for charge/potential (unit:Ry) = 235.196
          [fft grid for charge/potential] = 40, 40, 75
                      [fft grid division] = 1, 1, 1
      [big fft grid for charge/potential] = 40, 40, 75
                                     nbxx = 120000
                                     nrxx = 120000

 SETUP PLANE WAVES FOR CHARGE/POTENTIAL
                    number of plane waves = 120000
                         number of sticks = 1600

 PARALLEL PW FOR CHARGE/POTENTIAL
     PROC   COLUMNS(POT)             PW
        1           1600         120000
 --------------- sum -------------------
        1           1600         120000
                            number of |g| = 7524
                                  max |g| = 71.4685
                                  min |g| = 0

 SETUP THE ELECTRONS NUMBER
            electron number of element Li = 1
      total electron number of element Li = 2
            electron number of element Al = 3
      total electron number of element Al = 18
            AUTOSET number of electrons:  = 20
 DONE : SETUP UNITCELL Time : 0.844121 (SEC)





 >>>>>>>>>>>>>>>>>>>>>>>>>>>>>>>>>>>>>>>>>>>>>>>>>>>>>>>>>>>>>>>>>>>>>>
 |                                                                    |
 | Doing symmetry analysis:                                           |
 | We calculate the norm of 3 vectors and the angles between them,    |
 | the type of Bravais lattice is given. We can judge if the unticell |
 | is a primitive cell. Finally we give the point group operation for |
 | this unitcell. We we use the point group operations to do symmetry |
 | analysis on given k-point mesh and the charge density.             |
 |                                                                    |
 <<<<<<<<<<<<<<<<<<<<<<<<<<<<<<<<<<<<<<<<<<<<<<<<<<<<<<<<<<<<<<<<<<<<<<




 LATTICE VECTORS: (CARTESIAN COORDINATE: IN UNIT OF A0)
              +4.0033                  +0                  +0
                   +0             +4.0033                  +0
                   +0                  +0            +7.97021
                       right hand lattice = 1
                                   NORM_A = 4.0033
                                   NORM_B = 4.0033
                                   NORM_C = 7.97021
                           ALPHA (DEGREE) = 90
                           BETA  (DEGREE) = 90
                           GAMMA (DEGREE) = 90
                             BRAVAIS TYPE = 5
                     BRAVAIS LATTICE NAME = 05. Tetrogonal P (simple)
                                    IBRAV = 5
                                  BRAVAIS = SIMPLE TETROGONAL CELL
                       LATTICE CONSTANT A = 4.0033
                                C/A RATIO = 1.99091
                                    ibrav = 5
                        ROTATION MATRICES = 16
              PURE POINT GROUP OPERATIONS = 16
                   SPACE GROUP OPERATIONS = 16
                              POINT GROUP = D_4h
Warning : If the optimal symmetric configuration is not the input configuration, 
you have to manually change configurations, ABACUS would only calculate the input structure.
 DONE : SYMMETRY Time : 0.90634 (SEC)





 >>>>>>>>>>>>>>>>>>>>>>>>>>>>>>>>>>>>>>>>>>>>>>>>>>>>>>>>>>>>>>>>>>>>>>
 |                                                                    |
 | Setup K-points                                                     |
 | We setup the k-points according to input parameters.               |
 | The reduced k-points are set according to symmetry operations.     |
 | We treat the spin as another set of k-points.                      |
 |                                                                    |
 <<<<<<<<<<<<<<<<<<<<<<<<<<<<<<<<<<<<<<<<<<<<<<<<<<<<<<<<<<<<<<<<<<<<<<





 SETUP K-POINTS
                                    nspin = 1
                   Input type of k points = Monkhorst-Pack(Gamma)
                                   nkstot = 1
                               nkstot_ibz = 1
      IBZ             DirectX             DirectY             DirectZ              Weight    ibz2bz
        1                   0                   0                   0                   1         0
                               nkstot now = 1

  KPOINTS            DIRECT_X            DIRECT_Y            DIRECT_Z              WEIGHT
        1                   0                   0                   0                   1

           k-point number in this process = 1
       minimum distributed K point number = 1

  KPOINTS         CARTESIAN_X         CARTESIAN_Y         CARTESIAN_Z              WEIGHT
        1                   0                   0                   0                   2

  KPOINTS            DIRECT_X            DIRECT_Y            DIRECT_Z              WEIGHT
        1                   0                   0                   0                   2
 DONE : INIT K-POINTS Time : 0.911035 (SEC)

 DONE : INIT BASIS Time : 1.67747 (SEC)

 DONE : INIT PHI Time : 1.67885 (SEC)


 SETUP NONLOCAL PSEUDOPOTENTIALS IN PLANE WAVE BASIS
 Li non-local projectors:
 Al non-local projectors:
      TOTAL NUMBER OF NONLOCAL PROJECTORS = 0

 nhm = 0, not allocate some matrix. DONE : LOCAL POTENTIAL Time : 3.24157 (SEC)


 Init Non-Local PseudoPotential table : 
 Init Non-Local-Pseudopotential done.
 DONE : NON-LOCAL POTENTIAL Time : 3.2433 (SEC)

Successful completion of Potential's registration : local
Successful completion of Potential's registration : hartree
Successful completion of Potential's registration : xc
                                 init_chg = atomic
 DONE : INIT POTENTIAL Time : 5.70892 (SEC)

 DONE : INIT OPTIMIZATION Time : 5.71038 (SEC)

 DONE : INIT KEDF Time : 5.73473 (SEC)


 charge density convergence is achieved
 final etot is -360.65 eV



 ><><><><><><><><><><><><><><><><><><><><><><

    TOTAL-FORCE (eV/Angstrom)

 ><><><><><><><><><><><><><><><><><><><><><><

     atom              x              y              z
      Li1              0              0              0
      Li2              0              0              0
      Al1              0              0    -0.00010818
      Al2              0              0    -0.00010818
      Al3              0              0              0
      Al4              0              0    +0.00010818
      Al5              0              0    +0.00010818
      Al6              0              0              0


 ><><><><><><><><><><><><><><><><><><><><><><

 TOTAL-STRESS (KBAR)

 ><><><><><><><><><><><><><><><><><><><><><><

      -55.423111      +0.000000      +0.000000
       +0.000000     -55.423111      +0.000000
       +0.000000      +0.000000     -61.279603
 TOTAL-PRESSURE: -57.375275 KBAR


 --------------------------------------------
 !FINAL_ETOT_IS -360.6495447992548975 eV
 --------------------------------------------






  |CLASS_NAME---------|NAME---------------|TIME(Sec)-----|CALLS----|AVG------|PER%-------
                                      total     +206.52376        21     +9.83   +100.00%
                 Driver         driver_line     +206.45228         1   +206.45    +99.97%
               PW_Basis      setuptransform       +0.70560         1     +0.71     +0.34%
               PW_Basis  setup_struc_factor       +0.76614         1     +0.77     +0.37%
              ppcell_vl           init_vloc       +1.56032         1     +1.56     +0.76%
                 Charge          atomic_rho       +1.73350         1     +1.73     +0.84%
               PW_Basis          recip2real      +52.04494      2971     +0.02    +25.20%
               PW_Basis    gathers_scatterp       +9.45444      2971     +0.00     +4.58%
              Potential            init_pot       +0.71157         1     +0.71     +0.34%
              Potential  update_from_charge     +117.40981       228     +0.51    +56.85%
              Potential           cal_v_eff     +117.37149       228     +0.51    +56.83%
           H_Hartree_pw           v_hartree      +11.15519       228     +0.05     +5.40%
               PW_Basis          real2recip      +53.92708      2966     +0.02    +26.11%
               PW_Basis    gatherp_scatters       +6.61784      2966     +0.00     +3.20%
                  PotXC           cal_v_eff     +105.58430       228     +0.46    +51.12%
          XC_Functional                v_xc      +97.56751       114     +0.86    +47.24%
          XC_Functional          v_xc_libxc     +104.37724       228     +0.46    +50.54%
             ESolver_OF                 Run     +196.22886         1   +196.23    +95.02%
               KEDF_LKT       LKT_potential      +63.00848       227     +0.28    +30.51%
                KEDF_vW        vw_potential      +10.57670       227     +0.05     +5.12%
                 Forces       cal_force_loc       +0.52432         1     +0.52     +0.25%
                 Forces        cal_force_ew       +0.51807         1     +0.52     +0.25%
           OF_Stress_PW          cal_stress       +3.24425         1     +3.24     +1.57%
            Stress_Func          stress_ewa       +0.51673         1     +0.52     +0.25%
            Stress_Func          stress_gga       +0.36933         1     +0.37     +0.18%
            Stress_Func          stress_loc       +2.33930         1     +2.34     +1.13%
 ----------------------------------------------------------------------------------------

 CLASS_NAME---------|NAME---------------|MEMORY(MB)--------
                                         +12.8555
             PW_Basis           struc_fac        +3.6621
 ----------------------------------------------------------

 Start  Time  : Mon May 15 13:21:39 2023
 Finish Time  : Mon May 15 13:25:06 2023
 Total  Time  : 0 h 3 mins 27 secs 
