 *********************************************************
 *                                                       *
 *                  WELCOME TO ABACUS v3.0               *
 *                                                       *
 *            'Atomic-orbital Based Ab-initio            *
 *                  Computation at UStc'                 *
 *                                                       *
 *          Website: http://abacus.ustc.edu.cn/          *
 *                                                       *
 *********************************************************
 Wed Dec 28 12:42:27 2022
 MAKE THE DIR         : OUT.blpstest/
Notice: symbol 'mg_locpsp' is not an element symbol!!!! set the covalent radius to be 0.
 UNIFORM GRID DIM     : 30 * 30 * 50
 UNIFORM GRID DIM(BIG): 30 * 30 * 50
func,idXC_GGA_X_PBE 101
func,idXC_GGA_C_PBE 130
 DONE(0.1913     SEC) : SETUP UNITCELL
 DONE(0.246301   SEC) : SYMMETRY
 DONE(0.273637   SEC) : INIT K-POINTS
 ---------------------------------------------------------
 Self-consistent calculations for electrons
 ---------------------------------------------------------
 SPIN    KPOINTS         PROCESSORS  
 1       133             1           
 ---------------------------------------------------------
 Use plane wave basis
 ---------------------------------------------------------
 ELEMENT NATOM       XC          
 Mg      2           
 ---------------------------------------------------------
 Initial plane wave basis and FFT box
 ---------------------------------------------------------
 DONE(0.374351   SEC) : INIT PLANEWAVE
 MEMORY FOR PSI (MB)  : 29.735
 DONE(0.461116   SEC) : LOCAL POTENTIAL
 DONE(0.461157   SEC) : NON-LOCAL POTENTIAL
 DONE(0.461231   SEC) : INIT BASIS
 START CHARGE      : atomic
 DONE(0.615156   SEC) : INIT SCF
 ITER   ETOT(eV)       EDIFF(eV)      DRHO       TIME(s)    
 CG1    -4.804013e+01  0.000000e+00   9.446e-02  3.575e+01  
 CG2    -4.846621e+01  -4.260826e-01  8.914e-03  1.466e+01  
 CG3    -4.847690e+01  -1.069197e-02  1.937e-05  1.941e+01  
 CG4    -4.847811e+01  -1.208514e-03  9.986e-06  2.953e+01  
 CG5    -4.847811e+01  -2.284684e-06  4.501e-06  1.358e+01  
 CG6    -4.847813e+01  -1.774075e-05  4.893e-07  1.292e+01  
 CG7    -4.847813e+01  -6.296382e-07  6.872e-08  1.391e+01  
 CG8    -4.847813e+01  -4.868150e-08  1.519e-09  1.322e+01  
 CG9    -4.847813e+01  -6.307913e-09  3.358e-11  1.476e+01  

  |CLASS_NAME---------|NAME---------------|TIME(Sec)-----|CALLS----|AVG------|PER%-------
                       total               168.38         17        9.9       1e+02     %
   Driver              driver_line         168.37         1         1.7e+02   1e+02     %
   PW_Basis            setuptransform      0.16855        1         0.17      0.1       %
   ESolver_KS_PW       Run                 167.91         1         1.7e+02   1e+02     %
   PW_Basis            recip2real          0.19084        62        0.0031    0.11      %
   Potential           update_from_charge  0.94532        10        0.095     0.56      %
   Potential           cal_v_eff           0.94321        10        0.094     0.56      %
   PW_Basis            real2recip          0.30943        98        0.0032    0.18      %
   PotXC               cal_v_eff           0.86359        10        0.086     0.51      %
   XC_Functional       v_xc                97.422         5         19        58        %
   XC_Functional       v_xc_libxc          0.85766        10        0.086     0.51      %
   HSolverPW           solve               166.63         9         19        99        %
   DiagoIterAssist     diagH_subspace      32.99          1197      0.028     20        %
   OperatorPW          hPsi                151.09         27512     0.0055    90        %
   Operator            EkineticPW          0.78257        27512     2.8e-05   0.46      %
   Operator            VeffPW              149.91         27512     0.0054    89        %
   PW_Basis_K          recip2real          79.5           36205     0.0022    47        %
   PW_Basis_K          gathers_scatterp    7.6297         36205     0.00021   4.5       %
   PW_Basis_K          real2recip          63.818         33497     0.0019    38        %
   PW_Basis_K          gatherp_scatters    2.5876         33497     7.7e-05   1.5       %
   DiagoIterAssist     LAPACK_subspace     0.15892        1197      0.00013   0.094     %
   DiagoCG             diag_once           126.27         1197      0.11      75        %
   ElecStatePW         psiToRho            6.5812         9         0.73      3.9       %
   Charge              mix_rho             0.10277        8         0.013     0.061     %
 ----------------------------------------------------------------------------------------

 START  Time  : Wed Dec 28 12:42:27 2022
 FINISH Time  : Wed Dec 28 12:45:15 2022
 TOTAL  Time  : 1.7e+02
 SEE INFORMATION IN : OUT.blpstest/
