 *********************************************************
 *                                                       *
 *                  WELCOME TO ABACUS v3.0               *
 *                                                       *
 *            'Atomic-orbital Based Ab-initio            *
 *                  Computation at UStc'                 *
 *                                                       *
 *          Website: http://abacus.ustc.edu.cn/          *
 *                                                       *
 *********************************************************
 Wed Dec 28 12:03:40 2022
 MAKE THE DIR         : OUT.blpstest/
Notice: symbol 'al_locpsp' is not an element symbol!!!! set the covalent radius to be 0.
 UNIFORM GRID DIM     : 27 * 27 * 27
 UNIFORM GRID DIM(BIG): 27 * 27 * 27
func,idXC_GGA_X_PBE 101
func,idXC_GGA_C_PBE 130
 DONE(0.108986   SEC) : SETUP UNITCELL
 DONE(0.163022   SEC) : SYMMETRY
 DONE(0.510731   SEC) : INIT K-POINTS
 ---------------------------------------------------------
 Self-consistent calculations for electrons
 ---------------------------------------------------------
 SPIN    KPOINTS         PROCESSORS  
 1       256             1           
 ---------------------------------------------------------
 Use plane wave basis
 ---------------------------------------------------------
 ELEMENT NATOM       XC          
 Al      1           
 ---------------------------------------------------------
 Initial plane wave basis and FFT box
 ---------------------------------------------------------
 DONE(0.578646   SEC) : INIT PLANEWAVE
 MEMORY FOR PSI (MB)  : 55.6641
 DONE(0.591177   SEC) : LOCAL POTENTIAL
 DONE(0.591226   SEC) : NON-LOCAL POTENTIAL
 DONE(0.591302   SEC) : INIT BASIS
 START CHARGE      : atomic
 DONE(0.635414   SEC) : INIT SCF
 ITER   ETOT(eV)       EDIFF(eV)      DRHO       TIME(s)    
 CG1    -5.691596e+01  0.000000e+00   7.920e-02  5.113e+01  
 CG2    -5.717798e+01  -2.620213e-01  6.156e-03  1.772e+01  
 CG3    -5.718450e+01  -6.512647e-03  3.025e-05  2.179e+01  
 CG4    -5.718480e+01  -3.038739e-04  2.731e-06  2.936e+01  
 CG5    -5.718481e+01  -7.528506e-06  9.341e-08  1.660e+01  
 CG6    -5.718481e+01  -1.020090e-07  1.492e-08  1.750e+01  
 CG7    -5.718481e+01  -1.579042e-09  8.023e-10  1.682e+01  

  |CLASS_NAME---------|NAME---------------|TIME(Sec)-----|CALLS----|AVG------|PER%-------
                       total               171.61         17        10        1e+02     %
   Driver              driver_line         171.6          1         1.7e+02   1e+02     %
   ESolver_KS_PW       Run                 170.99         1         1.7e+02   1e+02     %
   Potential           update_from_charge  0.21176        8         0.026     0.12      %
   Potential           cal_v_eff           0.21074        8         0.026     0.12      %
   PotXC               cal_v_eff           0.19366        8         0.024     0.11      %
   XC_Functional       v_xc                106.35         4         27        62        %
   XC_Functional       v_xc_libxc          0.19327        8         0.024     0.11      %
   HSolverPW           solve               170.7          7         24        99        %
   DiagoIterAssist     diagH_subspace      35.111         1792      0.02      20        %
   OperatorPW          hPsi                158.7          100770    0.0016    92        %
   Operator            EkineticPW          0.48957        100770    4.9e-06   0.29      %
   Operator            VeffPW              157.68         100770    0.0016    92        %
   PW_Basis_K          recip2real          79.716         128695    0.00062   46        %
   PW_Basis_K          gathers_scatterp    5.3153         128695    4.1e-05   3.1       %
   PW_Basis_K          real2recip          73.258         125858    0.00058   43        %
   PW_Basis_K          gatherp_scatters    1.3025         125858    1e-05     0.76      %
   DiagoIterAssist     LAPACK_subspace     0.3294         1792      0.00018   0.19      %
   DiagoCG             diag_once           132.21         1792      0.074     77        %
   ElecStatePW         psiToRho            1.9463         7         0.28      1.1       %
 ----------------------------------------------------------------------------------------

 START  Time  : Wed Dec 28 12:03:40 2022
 FINISH Time  : Wed Dec 28 12:06:32 2022
 TOTAL  Time  : 1.7e+02
 SEE INFORMATION IN : OUT.blpstest/
