 *********************************************************
 *                                                       *
 *                  WELCOME TO ABACUS v3.0               *
 *                                                       *
 *            'Atomic-orbital Based Ab-initio            *
 *                  Computation at UStc'                 *
 *                                                       *
 *          Website: http://abacus.ustc.edu.cn/          *
 *                                                       *
 *********************************************************
 Wed Dec 28 16:45:14 2022
 MAKE THE DIR         : OUT.blpstest/
Notice: symbol 'mg_locpsp' is not an element symbol!!!! set the covalent radius to be 0.
Notice: symbol 'al_locpsp' is not an element symbol!!!! set the covalent radius to be 0.
 UNIFORM GRID DIM     : 36 * 36 * 36
 UNIFORM GRID DIM(BIG): 36 * 36 * 36
func,idXC_GGA_X_PBE 101
func,idXC_GGA_C_PBE 130
 DONE(0.203505   SEC) : SETUP UNITCELL
 DONE(0.234864   SEC) : SYMMETRY
 DONE(0.392605   SEC) : INIT K-POINTS
 ---------------------------------------------------------
 Self-consistent calculations for electrons
 ---------------------------------------------------------
 SPIN    KPOINTS         PROCESSORS  
 1       286             1           
 ---------------------------------------------------------
 Use plane wave basis
 ---------------------------------------------------------
 ELEMENT NATOM       XC          
 Mg      1           
 Al      3           
 ---------------------------------------------------------
 Initial plane wave basis and FFT box
 ---------------------------------------------------------
 DONE(0.513157   SEC) : INIT PLANEWAVE
 MEMORY FOR PSI (MB)  : 98.858
 DONE(0.569942   SEC) : LOCAL POTENTIAL
 DONE(0.569972   SEC) : NON-LOCAL POTENTIAL
 DONE(0.570022   SEC) : INIT BASIS
 START CHARGE      : atomic
 DONE(0.640873   SEC) : INIT SCF
 ITER   ETOT(eV)       EDIFF(eV)      DRHO       TIME(s)    
 CG1    -1.940162e+02  0.000000e+00   5.405e-01  3.761e+01  
 CG2    -1.957313e+02  -1.715058e+00  4.999e-02  1.490e+01  
 CG3    -1.958798e+02  -1.484921e-01  9.768e-03  1.809e+01  
 CG4    -1.959090e+02  -2.927358e-02  5.763e-05  1.695e+01  
 CG5    -1.959099e+02  -8.851050e-04  1.612e-06  2.378e+01  
 CG6    -1.959099e+02  -8.060816e-06  4.508e-08  1.858e+01  
 CG7    -1.959099e+02  -2.685325e-07  4.281e-09  2.040e+01  
 CG8    -1.959099e+02  -2.024287e-08  1.320e-09  1.875e+01  
 CG9    -1.959099e+02  -4.594639e-09  6.616e-12  1.551e+01  

  |CLASS_NAME---------|NAME---------------|TIME(Sec)-----|CALLS----|AVG------|PER%-------
                       total               185.23         17        11        1e+02     %
   Driver              driver_line         185.22         1         1.9e+02   1e+02     %
   PW_Basis            setuptransform      0.17963        1         0.18      0.097     %
   ESolver_KS_PW       Run                 184.65         1         1.8e+02   1e+02     %
   Potential           update_from_charge  0.33392        10        0.033     0.18      %
   Potential           cal_v_eff           0.3328         10        0.033     0.18      %
   PotXC               cal_v_eff           0.31066        10        0.031     0.17      %
   XC_Functional       v_xc                115.4          5         23        62        %
   XC_Functional       v_xc_libxc          0.30829        10        0.031     0.17      %
   HSolverPW           solve               184.21         9         20        99        %
   DiagoIterAssist     diagH_subspace      33.276         2574      0.013     18        %
   OperatorPW          hPsi                162.73         97447     0.0017    88        %
   Operator            EkineticPW          0.57613        97447     5.9e-06   0.31      %
   Operator            VeffPW              161.84         97447     0.0017    87        %
   PW_Basis_K          recip2real          92.575         133342    0.00069   50        %
   PW_Basis_K          gathers_scatterp    7.889          133342    5.9e-05   4.3       %
   PW_Basis_K          real2recip          72.013         118039    0.00061   39        %
   PW_Basis_K          gatherp_scatters    1.4145         118039    1.2e-05   0.76      %
   DiagoIterAssist     LAPACK_subspace     0.13367        2574      5.2e-05   0.072     %
   DiagoCG             diag_once           137.98         2574      0.054     74        %
   ElecStatePW         psiToRho            11.742         9         1.3       6.3       %
 ----------------------------------------------------------------------------------------

 START  Time  : Wed Dec 28 16:45:14 2022
 FINISH Time  : Wed Dec 28 16:48:19 2022
 TOTAL  Time  : 1.8e+02
 SEE INFORMATION IN : OUT.blpstest/
