                                                                                     
                             WELCOME TO ABACUS v3.0                                  
                                                                                     
               'Atomic-orbital Based Ab-initio Computation at UStc'                  
                                                                                     
                     Website: http://abacus.ustc.edu.cn/                             
                                                                                     
    Version: Parallel, in development
    Processor Number is 1
    Start Time is Sat May 13 19:47:26 2023
                                                                                     
 ------------------------------------------------------------------------------------

 READING GENERAL INFORMATION
                           global_out_dir = OUT.oftest/
                           global_in_card = INPUT
                               pseudo_dir = 
                              orbital_dir = 
                                    DRANK = 1
                                    DSIZE = 1
                                   DCOLOR = 1
                                    GRANK = 1
                                    GSIZE = 1
 The esolver type has been set to : ofdft




 >>>>>>>>>>>>>>>>>>>>>>>>>>>>>>>>>>>>>>>>>>>>>>>>>>>>>>>>>>>>>>>>>>>>>>
 |                                                                    |
 | Reading atom information in unitcell:                              |
 | From the input file and the structure file we know the number of   |
 | different elments in this unitcell, then we list the detail        |
 | information for each element, especially the zeta and polar atomic |
 | orbital number for each element. The total atom number is counted. |
 | We calculate the nearest atom distance for each atom and show the  |
 | Cartesian and Direct coordinates for each atom. We list the file   |
 | address for atomic orbitals. The volume and the lattice vectors    |
 | in real and reciprocal space is also shown.                        |
 |                                                                    |
 <<<<<<<<<<<<<<<<<<<<<<<<<<<<<<<<<<<<<<<<<<<<<<<<<<<<<<<<<<<<<<<<<<<<<<




 READING UNITCELL INFORMATION
                                    ntype = 2
                 atom label for species 1 = Mg
                 atom label for species 2 = Al
                  lattice constant (Bohr) = 1.88973
              lattice constant (Angstrom) = 1

 READING ATOM TYPE 1
                               atom label = Mg
                      L=0, number of zeta = 1
                      L=1, number of zeta = 1
                      L=2, number of zeta = 1
             number of atom for this type = 2
                      start magnetization = FALSE
                      start magnetization = FALSE

 READING ATOM TYPE 2
                               atom label = Al
                      L=0, number of zeta = 1
                      L=1, number of zeta = 1
                      L=2, number of zeta = 1
             number of atom for this type = 4
                      start magnetization = FALSE
                      start magnetization = FALSE
                      start magnetization = FALSE
                      start magnetization = FALSE

                        TOTAL ATOM NUMBER = 6

 DIRECT COORDINATES
         atom                   x                   y                   z                 mag                  vx                  vy                  vz
     taud_Mg1                   0                   0                   0                   0                   0                   0                   0
     taud_Mg2                 0.5                 0.5                 0.5                   0                   0                   0                   0
     taud_Al1            0.335846            0.335846                   0                   0                   0                   0                   0
     taud_Al2            0.664154            0.664154                   0                   0                   0                   0                   0
     taud_Al3            0.835846            0.164154                 0.5                   0                   0                   0                   0
     taud_Al4            0.164154            0.835846                 0.5                   0                   0                   0                   0


                          Volume (Bohr^3) = 1056.99
                             Volume (A^3) = 156.629

 Lattice vectors: (Cartesian coordinate: in unit of a_0)
              +5.5487                  +0                  +0
                   +0             +5.5487                  +0
                   +0                  +0            +5.08736
 Reciprocal vectors: (Cartesian coordinate: in unit of 2 pi/a_0)
            +0.180223                  -0                  +0
                   -0           +0.180223                  -0
                   +0                  -0           +0.196566




 >>>>>>>>>>>>>>>>>>>>>>>>>>>>>>>>>>>>>>>>>>>>>>>>>>>>>>>>>>>>>>>>>>>>>>
 |                                                                    |
 | Reading pseudopotentials files:                                    |
 | The pseudopotential file is in UPF format. The 'NC' indicates that |
 | the type of pseudopotential is 'norm conserving'. Functional of    |
 | exchange and correlation is decided by 4 given parameters in UPF   |
 | file.  We also read in the 'core correction' if there exists.      |
 | Also we can read the valence electrons number and the maximal      |
 | angular momentum used in this pseudopotential. We also read in the |
 | trail wave function, trail atomic density and local-pseudopotential|
 | on logrithmic grid. The non-local pseudopotential projector is also|
 | read in if there is any.                                           |
 |                                                                    |
 <<<<<<<<<<<<<<<<<<<<<<<<<<<<<<<<<<<<<<<<<<<<<<<<<<<<<<<<<<<<<<<<<<<<<<




                PAO radial cut off (Bohr) = 16

 Read in pseudopotential file is mg.gga.psp
                     pseudopotential type = 
          exchange-correlation functional = XC_GGA_X_PBE+XC_GGA_C_PBE
                 nonlocal core correction = 0
                        valence electrons = 2
                                     lmax = 0
                           number of zeta = 0
                     number of projectors = 0
                PAO radial cut off (Bohr) = 16

 Read in pseudopotential file is al.gga.psp
                     pseudopotential type = 
          exchange-correlation functional = XC_GGA_X_PBE+XC_GGA_C_PBE
                 nonlocal core correction = 0
                        valence electrons = 3
                                     lmax = 0
                           number of zeta = 0
                     number of projectors = 0
Notice: symbol 'mg_locpsp' is not an element symbol!!!! set the covalent radius to be 0.
Notice: symbol 'al_locpsp' is not an element symbol!!!! set the covalent radius to be 0.
     initial pseudo atomic orbital number = 0
                                   NLOCAL = 54




 >>>>>>>>>>>>>>>>>>>>>>>>>>>>>>>>>>>>>>>>>>>>>>>>>>>>>>>>>>>>>>>>>>>>>>
 |                                                                    |
 | Setup plane waves of charge/potential:                             |
 | Use the energy cutoff and the lattice vectors to generate the      |
 | dimensions of FFT grid. The number of FFT grid on each processor   |
 | is 'nrxx'. The number of plane wave basis in reciprocal space is   |
 | different for charege/potential and wave functions. We also set    |
 | the 'sticks' for the parallel of FFT. The number of plane waves    |
 | is 'npw' in each processor.                                        |
 <<<<<<<<<<<<<<<<<<<<<<<<<<<<<<<<<<<<<<<<<<<<<<<<<<<<<<<<<<<<<<<<<<<<<<





 SETUP THE PLANE WAVE BASIS
 energy cutoff for charge/potential (unit:Ry) = 235.196
          [fft grid for charge/potential] = 54, 54, 48
                      [fft grid division] = 1, 1, 1
      [big fft grid for charge/potential] = 54, 54, 48
                                     nbxx = 139968
                                     nrxx = 139968

 SETUP PLANE WAVES FOR CHARGE/POTENTIAL
                    number of plane waves = 139968
                         number of sticks = 2916

 PARALLEL PW FOR CHARGE/POTENTIAL
     PROC   COLUMNS(POT)             PW
        1           2916         139968
 --------------- sum -------------------
        1           2916         139968
                            number of |g| = 8425
                                  max |g| = 69.6116
                                  min |g| = 0

 SETUP THE ELECTRONS NUMBER
            electron number of element Mg = 2
      total electron number of element Mg = 4
            electron number of element Al = 3
      total electron number of element Al = 12
            AUTOSET number of electrons:  = 16
 DONE : SETUP UNITCELL Time : 0.439909 (SEC)





 >>>>>>>>>>>>>>>>>>>>>>>>>>>>>>>>>>>>>>>>>>>>>>>>>>>>>>>>>>>>>>>>>>>>>>
 |                                                                    |
 | Doing symmetry analysis:                                           |
 | We calculate the norm of 3 vectors and the angles between them,    |
 | the type of Bravais lattice is given. We can judge if the unticell |
 | is a primitive cell. Finally we give the point group operation for |
 | this unitcell. We we use the point group operations to do symmetry |
 | analysis on given k-point mesh and the charge density.             |
 |                                                                    |
 <<<<<<<<<<<<<<<<<<<<<<<<<<<<<<<<<<<<<<<<<<<<<<<<<<<<<<<<<<<<<<<<<<<<<<




 LATTICE VECTORS: (CARTESIAN COORDINATE: IN UNIT OF A0)
              +5.5487                  +0                  +0
                   +0             +5.5487                  +0
                   +0                  +0            +5.08736
                       right hand lattice = 1
                                   NORM_A = 5.5487
                                   NORM_B = 5.5487
                                   NORM_C = 5.08736
                           ALPHA (DEGREE) = 90
                           BETA  (DEGREE) = 90
                           GAMMA (DEGREE) = 90
                             BRAVAIS TYPE = 5
                     BRAVAIS LATTICE NAME = 05. Tetrogonal P (simple)
                                    IBRAV = 5
                                  BRAVAIS = SIMPLE TETROGONAL CELL
                       LATTICE CONSTANT A = 5.5487
                                C/A RATIO = 0.916857
                                    ibrav = 5
                        ROTATION MATRICES = 16
              PURE POINT GROUP OPERATIONS = 16
                   SPACE GROUP OPERATIONS = 16
                              POINT GROUP = D_4h
Warning : If the optimal symmetric configuration is not the input configuration, 
you have to manually change configurations, ABACUS would only calculate the input structure.
 DONE : SYMMETRY Time : 0.494293 (SEC)





 >>>>>>>>>>>>>>>>>>>>>>>>>>>>>>>>>>>>>>>>>>>>>>>>>>>>>>>>>>>>>>>>>>>>>>
 |                                                                    |
 | Setup K-points                                                     |
 | We setup the k-points according to input parameters.               |
 | The reduced k-points are set according to symmetry operations.     |
 | We treat the spin as another set of k-points.                      |
 |                                                                    |
 <<<<<<<<<<<<<<<<<<<<<<<<<<<<<<<<<<<<<<<<<<<<<<<<<<<<<<<<<<<<<<<<<<<<<<





 SETUP K-POINTS
                                    nspin = 1
                   Input type of k points = Monkhorst-Pack(Gamma)
                                   nkstot = 1
                               nkstot_ibz = 1
      IBZ             DirectX             DirectY             DirectZ              Weight    ibz2bz
        1                   0                   0                   0                   1         0
                               nkstot now = 1

  KPOINTS            DIRECT_X            DIRECT_Y            DIRECT_Z              WEIGHT
        1                   0                   0                   0                   1

           k-point number in this process = 1
       minimum distributed K point number = 1

  KPOINTS         CARTESIAN_X         CARTESIAN_Y         CARTESIAN_Z              WEIGHT
        1                   0                   0                   0                   2

  KPOINTS            DIRECT_X            DIRECT_Y            DIRECT_Z              WEIGHT
        1                   0                   0                   0                   2
 DONE : INIT K-POINTS Time : 0.494574 (SEC)

 DONE : INIT BASIS Time : 0.642073 (SEC)

 DONE : INIT PHI Time : 0.642125 (SEC)


 SETUP NONLOCAL PSEUDOPOTENTIALS IN PLANE WAVE BASIS
 Mg non-local projectors:
 Al non-local projectors:
      TOTAL NUMBER OF NONLOCAL PROJECTORS = 0

 nhm = 0, not allocate some matrix. DONE : LOCAL POTENTIAL Time : 2.05481 (SEC)


 Init Non-Local PseudoPotential table : 
 Init Non-Local-Pseudopotential done.
 DONE : NON-LOCAL POTENTIAL Time : 2.05487 (SEC)

Successful completion of Potential's registration : local
Successful completion of Potential's registration : hartree
Successful completion of Potential's registration : xc
                                 init_chg = atomic
 DONE : INIT POTENTIAL Time : 3.72951 (SEC)

 DONE : INIT OPTIMIZATION Time : 3.73024 (SEC)

 DONE : INIT KEDF Time : 3.80987 (SEC)


 charge density convergence is achieved
 final etot is -271.893 eV



 ><><><><><><><><><><><><><><><><><><><><><><

    TOTAL-FORCE (eV/Angstrom)

 ><><><><><><><><><><><><><><><><><><><><><><

     atom              x              y              z
      Mg1              0              0              0
      Mg2              0              0              0
      Al1    +0.67846731    +0.67846731              0
      Al2    -0.67846731    -0.67846731              0
      Al3    +0.67846756    -0.67846756              0
      Al4    -0.67846756    +0.67846756              0


 ><><><><><><><><><><><><><><><><><><><><><><

 TOTAL-STRESS (KBAR)

 ><><><><><><><><><><><><><><><><><><><><><><

     -641.167154      -0.000018      +0.000000
       -0.000018    -641.167154      +0.000000
       +0.000000      +0.000000    -633.131532
 TOTAL-PRESSURE: -638.488613 KBAR


 --------------------------------------------
 !FINAL_ETOT_IS -271.8930361895223200 eV
 --------------------------------------------






  |CLASS_NAME---------|NAME---------------|TIME(Sec)-----|CALLS----|AVG------|PER%-------
                                      total    +2155.67233        21   +102.65   +100.00%
                 Driver         driver_line    +2155.66092         1  +2155.66   +100.00%
               PW_Basis      setuptransform       +0.37545         1     +0.38     +0.02%
               PW_Basis  setup_struc_factor       +0.14706         1     +0.15     +0.01%
              ppcell_vl           init_vloc       +1.41248         1     +1.41     +0.07%
                 Charge          atomic_rho       +1.44614         1     +1.45     +0.07%
               PW_Basis          recip2real      +53.01662      7051     +0.01     +2.46%
               PW_Basis    gathers_scatterp       +4.25072      7051     +0.00     +0.20%
              Potential            init_pot       +0.22041         1     +0.22     +0.01%
              Potential  update_from_charge      +73.81743       353     +0.21     +3.42%
              Potential           cal_v_eff      +73.80563       353     +0.21     +3.42%
           H_Hartree_pw           v_hartree       +6.21037       353     +0.02     +0.29%
               PW_Basis          real2recip      +53.06695      7053     +0.01     +2.46%
               PW_Basis    gatherp_scatters       +2.72101      7053     +0.00     +0.13%
                  PotXC           cal_v_eff      +67.39219       353     +0.19     +3.13%
          XC_Functional                v_xc    +1069.18048       177     +6.04    +49.60%
          XC_Functional          v_xc_libxc      +67.29507       353     +0.19     +3.12%
             ESolver_OF                 Run    +2148.38181         1  +2148.38    +99.66%
                KEDF_vW        vw_potential       +5.98192       352     +0.02     +0.28%
                 Forces       cal_force_loc       +0.15097         1     +0.15     +0.01%
                 Forces        cal_force_ew       +0.14548         1     +0.15     +0.01%
           OF_Stress_PW          cal_stress       +3.17583         1     +3.18     +0.15%
            Stress_Func          stress_ewa       +0.15337         1     +0.15     +0.01%
            Stress_Func          stress_gga       +0.40672         1     +0.41     +0.02%
            Stress_Func          stress_loc       +2.60242         1     +2.60     +0.12%
 ----------------------------------------------------------------------------------------

 CLASS_NAME---------|NAME---------------|MEMORY(MB)--------
                                         +14.9790
             PW_Basis           struc_fac        +4.2715
               Charge                 rho        +1.0679
               Charge            rho_save        +1.0679
               Charge                rhog        +1.0679
               Charge           rhog_save        +1.0679
               Charge               kin_r        +1.0679
               Charge          kin_r_save        +1.0679
               Charge            rho_core        +1.0679
               Charge           rhog_core        +1.0679
            Potential   v_effective_fixed        +1.0679
            Potential              vr_eff        +1.0679
 ----------------------------------------------------------

 Start  Time  : Sat May 13 19:47:26 2023
 Finish Time  : Sat May 13 20:23:22 2023
 Total  Time  : 0 h 35 mins 56 secs 
