 *********************************************************
 *                                                       *
 *                  WELCOME TO ABACUS v3.0               *
 *                                                       *
 *            'Atomic-orbital Based Ab-initio            *
 *                  Computation at UStc'                 *
 *                                                       *
 *          Website: http://abacus.ustc.edu.cn/          *
 *                                                       *
 *********************************************************
 Tue May  2 12:50:28 2023
 MAKE THE DIR         : OUT.blpstest/
Notice: symbol 'mg_locpsp' is not an element symbol!!!! set the covalent radius to be 0.
 UNIFORM GRID DIM     : 30 * 30 * 30
 UNIFORM GRID DIM(BIG): 30 * 30 * 30
func,idXC_GGA_X_PBE 101
func,idXC_GGA_C_PBE 130
 DONE(0.185397   SEC) : SETUP UNITCELL
 DONE(0.245817   SEC) : SYMMETRY
 DONE(0.246749   SEC) : INIT K-POINTS
 ---------------------------------------------------------
 Self-consistent calculations for electrons
 ---------------------------------------------------------
 SPIN    KPOINTS         PROCESSORS  
 1       1               1           
 ---------------------------------------------------------
 Use plane wave basis
 ---------------------------------------------------------
 ELEMENT NATOM       XC          
 Mg      1           
 ---------------------------------------------------------
 Initial plane wave basis and FFT box
 ---------------------------------------------------------
 DONE(0.249291   SEC) : INIT BASIS
 DONE(0.249358   SEC) : INIT PHI
 DONE(0.289776   SEC) : LOCAL POTENTIAL
 DONE(0.289917   SEC) : NON-LOCAL POTENTIAL
 START CHARGE      : atomic
 DONE(0.429202   SEC) : INIT POTENTIAL
 DONE(0.429334   SEC) : INIT OPTIMIZATION
Default type: double
 DONE(0.431122   SEC) : INIT KEDF
======================== Running OFDFT ========================
Iter        Etot(Ha)          Theta      PotNorm     deltaE(Ha)
0     -8.338052022464e-01   2.000e-01   8.242e-02   -8.338e-01  
1     -8.731357312328e-01   1.091e-01   5.866e-02   -3.933e-02  
2     -8.759202254210e-01   2.199e-02   1.761e-02   -2.784e-03  
3     -8.762950319477e-01   1.326e-02   7.573e-03   -3.748e-04  
4     -8.763202008472e-01   2.277e-03   5.892e-04   -2.517e-05  
5     -8.763204535442e-01   2.110e-04   1.277e-04   -2.527e-07  
6     -8.763204690735e-01   9.075e-05   9.762e-06   -1.553e-08  

  |CLASS_NAME---------|NAME---------------|TIME(Sec)-----|CALLS----|AVG------|PER%-------
                       total               9.1356         21        0.44      1e+02     %
   Driver              driver_line         9.1142         1         9.1       1e+02     %
   PW_Basis            setuptransform      0.14749        1         0.15      1.6       %
   PW_Basis            recip2real          1.737          1971      0.00088   19        %
   PW_Basis            gathers_scatterp    0.18933        1971      9.6e-05   2.1       %
   Potential           update_from_charge  5.293          152       0.035     58        %
   Potential           cal_v_eff           5.2881         152       0.035     58        %
   H_Hartree_pw        v_hartree           0.41259        152       0.0027    4.5       %
   PW_Basis            real2recip          1.8071         1971      0.00092   20        %
   PW_Basis            gatherp_scatters    0.16953        1971      8.6e-05   1.9       %
   PotXC               cal_v_eff           4.8469         152       0.032     53        %
   XC_Functional       v_xc                4.386          76        0.058     48        %
   XC_Functional       v_xc_libxc          4.7921         152       0.032     52        %
   ESolver_OF          Run                 8.7039         1         8.7       95        %
   KEDF_LKT            LKT_potential       2.9017         151       0.019     32        %
   KEDF_vW             vw_potential        0.36699        151       0.0024    4         %
 ----------------------------------------------------------------------------------------

 START  Time  : Tue May  2 12:50:28 2023
 FINISH Time  : Tue May  2 12:50:37 2023
 TOTAL  Time  : 9
 SEE INFORMATION IN : OUT.blpstest/
