                                                                                     
                             WELCOME TO ABACUS                                       
                                                                                     
               'Atomic-orbital Based Ab-initio Computation at UStc'                  
                                                                                     
                     Website: http://abacus.ustc.edu.cn/                             
                                                                                     
    Version: Parallel, in development
    Processor Number is 1
    Start Time is Sat Mar 26 13:25:42 2022
                                                                                     
 ------------------------------------------------------------------------------------

 READING GENERAL INFORMATION
                           global_out_dir = OUT.stack/
                           global_in_card = INPUT
                               pseudo_dir = ./
                              orbital_dir = ./
                              pseudo_type = blps
                                    DRANK = 1
                                    DSIZE = 1
                                   DCOLOR = 1
                                    GRANK = 1
                                    GSIZE = 1




 >>>>>>>>>>>>>>>>>>>>>>>>>>>>>>>>>>>>>>>>>>>>>>>>>>>>>>>>>>>>>>>>>>>>>>
 |                                                                    |
 | Reading atom information in unitcell:                              |
 | From the input file and the structure file we know the number of   |
 | different elments in this unitcell, then we list the detail        |
 | information for each element, especially the zeta and polar atomic |
 | orbital number for each element. The total atom number is counted. |
 | We calculate the nearest atom distance for each atom and show the  |
 | Cartesian and Direct coordinates for each atom. We list the file   |
 | address for atomic orbitals. The volume and the lattice vectors    |
 | in real and reciprocal space is also shown.                        |
 |                                                                    |
 <<<<<<<<<<<<<<<<<<<<<<<<<<<<<<<<<<<<<<<<<<<<<<<<<<<<<<<<<<<<<<<<<<<<<<




 READING UNITCELL INFORMATION
                                    ntype = 1
                 atom label for species 1 = Al
                  lattice constant (Bohr) = 7.50241
              lattice constant (Angstrom) = 3.9701

 READING ATOM TYPE 1
                               atom label = Al
                      L=0, number of zeta = 1
                      L=1, number of zeta = 1
                      L=2, number of zeta = 1
             number of atom for this type = 22
                      start magnetization = FALSE
                      start magnetization = FALSE
                      start magnetization = FALSE
                      start magnetization = FALSE
                      start magnetization = FALSE
                      start magnetization = FALSE
                      start magnetization = FALSE
                      start magnetization = FALSE
                      start magnetization = FALSE
                      start magnetization = FALSE
                      start magnetization = FALSE
                      start magnetization = FALSE
                      start magnetization = FALSE
                      start magnetization = FALSE
                      start magnetization = FALSE
                      start magnetization = FALSE
                      start magnetization = FALSE
                      start magnetization = FALSE
                      start magnetization = FALSE
                      start magnetization = FALSE
                      start magnetization = FALSE
                      start magnetization = FALSE

                        TOTAL ATOM NUMBER = 22

 DIRECT COORDINATES
         atom                   x                   y                   z                 mag                  vx                  vy                  vz
     taud_Al1                   0                   0                   0                   0                   0                   0                   0
     taud_Al2            0.333333            0.333333           0.0454545                   0                   0                   0                   0
     taud_Al3            0.666667            0.666667           0.0909091                   0                   0                   0                   0
     taud_Al4                   0                   0            0.136364                   0                   0                   0                   0
     taud_Al5            0.333333            0.333333            0.181818                   0                   0                   0                   0
     taud_Al6                   0                   0            0.227273                   0                   0                   0                   0
     taud_Al7                 0.6                 0.6            0.272727                   0                   0                   0                   0
     taud_Al8            0.933333            0.933333            0.318182                   0                   0                   0                   0
     taud_Al9            0.266667            0.266667            0.363636                   0                   0                   0                   0
    taud_Al10                 0.6                 0.6            0.409091                   0                   0                   0                   0
    taud_Al11            0.933333            0.933333            0.454545                   0                   0                   0                   0
    taud_Al12                 0.6                 0.6                 0.5                   0                   0                   0                   0
    taud_Al13            0.266667            0.266667            0.545455                   0                   0                   0                   0
    taud_Al14            0.933333            0.933333            0.590909                   0                   0                   0                   0
    taud_Al15                 0.6                 0.6            0.636364                   0                   0                   0                   0
    taud_Al16                   0                   0            0.681818                   0                   0                   0                   0
    taud_Al17            0.333333            0.333333            0.727273                   0                   0                   0                   0
    taud_Al18                   0                   0            0.772727                   0                   0                   0                   0
    taud_Al19            0.666667            0.666667            0.818182                   0                   0                   0                   0
    taud_Al20            0.333333            0.333333            0.863636                   0                   0                   0                   0
    taud_Al21                   0                   0            0.909091                   0                   0                   0                   0
    taud_Al22            0.666667            0.666667            0.954545                   0                   0                   0                   0


                          Volume (Bohr^3) = 2322.55
                             Volume (A^3) = 344.166

 Lattice vectors: (Cartesian coordinate: in unit of a_0)
            +0.707107                  +0                  +0
            +0.353553           +0.612372                  +0
                   +0                  +0            +12.7017
 Reciprocal vectors: (Cartesian coordinate: in unit of 2 pi/a_0)
             +1.41421           -0.816497                  +0
                   -0            +1.63299                  -0
                   +0                  -0          +0.0787296




 >>>>>>>>>>>>>>>>>>>>>>>>>>>>>>>>>>>>>>>>>>>>>>>>>>>>>>>>>>>>>>>>>>>>>>
 |                                                                    |
 | Reading pseudopotentials files:                                    |
 | The pseudopotential file is in UPF format. The 'NC' indicates that |
 | the type of pseudopotential is 'norm conserving'. Functional of    |
 | exchange and correlation is decided by 4 given parameters in UPF   |
 | file.  We also read in the 'core correction' if there exists.      |
 | Also we can read the valence electrons number and the maximal      |
 | angular momentum used in this pseudopotential. We also read in the |
 | trail wave function, trail atomic density and local-pseudopotential|
 | on logrithmic grid. The non-local pseudopotential projector is also|
 | read in if there is any.                                           |
 |                                                                    |
 <<<<<<<<<<<<<<<<<<<<<<<<<<<<<<<<<<<<<<<<<<<<<<<<<<<<<<<<<<<<<<<<<<<<<<




                PAO radial cut off (Bohr) = 16

 Read in pseudopotential file is al.lda.lps
                     pseudopotential type = 
                            functional Ex = LDA
                            functional Ec = LDA
                          functional GCEx = NOGX
                          functional GCEc = NOGC
                 nonlocal core correction = 0
                        valence electrons = 3
                                     lmax = 0
                           number of zeta = 0
                     number of projectors = 0
     initial pseudo atomic orbital number = 0
                                   NLOCAL = 198

 SETUP THE ELECTRONS NUMBER
            electron number of element Al = 3
      total electron number of element Al = 66
                           occupied bands = 33
                                   NBANDS = 45
 DONE : SETUP UNITCELL Time : 0.0113175 (SEC)





 >>>>>>>>>>>>>>>>>>>>>>>>>>>>>>>>>>>>>>>>>>>>>>>>>>>>>>>>>>>>>>>>>>>>>>
 |                                                                    |
 | Doing symmetry analysis:                                           |
 | We calculate the norm of 3 vectors and the angles between them,    |
 | the type of Bravais lattice is given. We can judge if the unticell |
 | is a primitive cell. Finally we give the point group operation for |
 | this unitcell. We we use the point group operations to do symmetry |
 | analysis on given k-point mesh and the charge density.             |
 |                                                                    |
 <<<<<<<<<<<<<<<<<<<<<<<<<<<<<<<<<<<<<<<<<<<<<<<<<<<<<<<<<<<<<<<<<<<<<<




 LATTICE VECTORS: (CARTESIAN COORDINATE: IN UNIT OF A0)
            +0.707107                  +0                  +0
            +0.353553           +0.612372                  +0
                   +0                  +0            +12.7017
                       right hand lattice = 1
                                   NORM_A = 0.707107
                                   NORM_B = 0.707107
                                   NORM_C = 12.7017
                           ALPHA (DEGREE) = 60
                           BETA  (DEGREE) = 90
                           GAMMA (DEGREE) = 90
                             BRAVAIS TYPE = 4
                     BRAVAIS LATTICE NAME = 04. Hexagonal cell
 STANDARD LATTICE VECTORS: (CARTESIAN COORDINATE: IN UNIT OF A0)
            +0.707107                  +0                  +0
            +0.353553           +0.612372                  +0
                   +0                  +0            +12.7017
                                    IBRAV = 4
                                  BRAVAIS = HEXAGONAL CELL
                       LATTICE CONSTANT A = 38.1903
                                C/A RATIO = 0.666981
                                    ibrav = 4
                        ROTATION MATRICES = 24
              PURE POINT GROUP OPERATIONS = 2
                   SPACE GROUP OPERATIONS = 4
                                       C2 = 0
                                       C3 = 0
                                       C4 = 0
                                       C6 = 0
                                       S1 = 1
                                       S3 = 0
                                       S4 = 0
                                       S6 = 0
                              POINT GROUP = C_1h
 DONE : SYMMETRY Time : 0.0749166 (SEC)





 >>>>>>>>>>>>>>>>>>>>>>>>>>>>>>>>>>>>>>>>>>>>>>>>>>>>>>>>>>>>>>>>>>>>>>
 |                                                                    |
 | Setup K-points                                                     |
 | We setup the k-points according to input parameters.               |
 | The reduced k-points are set according to symmetry operations.     |
 | We treat the spin as another set of k-points.                      |
 |                                                                    |
 <<<<<<<<<<<<<<<<<<<<<<<<<<<<<<<<<<<<<<<<<<<<<<<<<<<<<<<<<<<<<<<<<<<<<<





 SETUP K-POINTS
                                    nspin = 1
                   Input type of k points = Monkhorst-Pack(Gamma)
                                   nkstot = 100
                               nkstot_ibz = 31
      IBZ             DirectX             DirectY             DirectZ              Weight    ibz2bz
        1                   0                   0                 0.5                0.01         0
        2                   0                 0.9                 0.5                0.04         1
        3                 0.8                   0                 0.5                0.04         2
        4                   0                 0.7                 0.5                0.04         3
        5                 0.6                   0                 0.5                0.04         4
        6                   0                 0.5                 0.5                0.02         5
        7                 0.9                 0.9                 0.5                0.02        11
        8                 0.9                 0.8                 0.5                0.04        12
        9                 0.9                 0.7                 0.5                0.04        13
       10                 0.9                 0.6                 0.5                0.04        14
       11                 0.9                 0.5                 0.5                0.04        15
       12                 0.9                 0.4                 0.5                0.04        16
       13                 0.9                 0.3                 0.5                0.04        17
       14                 0.9                 0.2                 0.5                0.04        18
       15                 0.9                 0.1                 0.5                0.02        19
       16                 0.8                 0.8                 0.5                0.02        22
       17                 0.8                 0.7                 0.5                0.04        23
       18                 0.8                 0.6                 0.5                0.04        24
       19                 0.8                 0.5                 0.5                0.04        25
       20                 0.8                 0.4                 0.5                0.04        26
       21                 0.8                 0.3                 0.5                0.04        27
       22                 0.2                 0.8                 0.5                0.02        28
       23                 0.7                 0.7                 0.5                0.02        33
       24                 0.7                 0.6                 0.5                0.04        34
       25                 0.7                 0.5                 0.5                0.04        35
       26                 0.7                 0.4                 0.5                0.04        36
       27                 0.7                 0.3                 0.5                0.02        37
       28                 0.6                 0.6                 0.5                0.02        44
       29                 0.6                 0.5                 0.5                0.04        45
       30                 0.4                 0.6                 0.5                0.02        46
       31                 0.5                 0.5                 0.5                0.01        55
                               nkstot now = 31

  KPOINTS            DIRECT_X            DIRECT_Y            DIRECT_Z              WEIGHT
        1                   0                   0                 0.5                0.01
        2                   0                 0.9                 0.5                0.04
        3                 0.8                   0                 0.5                0.04
        4                   0                 0.7                 0.5                0.04
        5                 0.6                   0                 0.5                0.04
        6                   0                 0.5                 0.5                0.02
        7                 0.9                 0.9                 0.5                0.02
        8                 0.9                 0.8                 0.5                0.04
        9                 0.9                 0.7                 0.5                0.04
       10                 0.9                 0.6                 0.5                0.04
       11                 0.9                 0.5                 0.5                0.04
       12                 0.9                 0.4                 0.5                0.04
       13                 0.9                 0.3                 0.5                0.04
       14                 0.9                 0.2                 0.5                0.04
       15                 0.9                 0.1                 0.5                0.02
       16                 0.8                 0.8                 0.5                0.02
       17                 0.8                 0.7                 0.5                0.04
       18                 0.8                 0.6                 0.5                0.04
       19                 0.8                 0.5                 0.5                0.04
       20                 0.8                 0.4                 0.5                0.04
       21                 0.8                 0.3                 0.5                0.04
       22                 0.2                 0.8                 0.5                0.02
       23                 0.7                 0.7                 0.5                0.02
       24                 0.7                 0.6                 0.5                0.04
       25                 0.7                 0.5                 0.5                0.04
       26                 0.7                 0.4                 0.5                0.04
       27                 0.7                 0.3                 0.5                0.02
       28                 0.6                 0.6                 0.5                0.02
       29                 0.6                 0.5                 0.5                0.04
       30                 0.4                 0.6                 0.5                0.02
       31                 0.5                 0.5                 0.5                0.01

           k-point number in this process = 31
       minimum distributed K point number = 31

  KPOINTS         CARTESIAN_X         CARTESIAN_Y         CARTESIAN_Z              WEIGHT
        1                   0                   0           0.0393648                0.02
        2                   0             1.46969           0.0393648                0.08
        3             1.13137           -0.653197           0.0393648                0.08
        4                   0              1.1431           0.0393648                0.08
        5            0.848528           -0.489898           0.0393648                0.08
        6                   0            0.816497           0.0393648                0.04
        7             1.27279            0.734847           0.0393648                0.04
        8             1.27279            0.571548           0.0393648                0.08
        9             1.27279            0.408248           0.0393648                0.08
       10             1.27279            0.244949           0.0393648                0.08
       11             1.27279           0.0816497           0.0393648                0.08
       12             1.27279          -0.0816497           0.0393648                0.08
       13             1.27279           -0.244949           0.0393648                0.08
       14             1.27279           -0.408248           0.0393648                0.08
       15             1.27279           -0.571548           0.0393648                0.04
       16             1.13137            0.653197           0.0393648                0.04
       17             1.13137            0.489898           0.0393648                0.08
       18             1.13137            0.326599           0.0393648                0.08
       19             1.13137            0.163299           0.0393648                0.08
       20             1.13137                   0           0.0393648                0.08
       21             1.13137           -0.163299           0.0393648                0.08
       22            0.282843              1.1431           0.0393648                0.04
       23            0.989949            0.571548           0.0393648                0.04
       24            0.989949            0.408248           0.0393648                0.08
       25            0.989949            0.244949           0.0393648                0.08
       26            0.989949           0.0816497           0.0393648                0.08
       27            0.989949          -0.0816497           0.0393648                0.04
       28            0.848528            0.489898           0.0393648                0.04
       29            0.848528            0.326599           0.0393648                0.08
       30            0.565685            0.653197           0.0393648                0.04
       31            0.707107            0.408248           0.0393648                0.02

  KPOINTS            DIRECT_X            DIRECT_Y            DIRECT_Z              WEIGHT
        1                   0                   0                 0.5                0.02
        2                   0                 0.9                 0.5                0.08
        3                 0.8                   0                 0.5                0.08
        4                   0                 0.7                 0.5                0.08
        5                 0.6                   0                 0.5                0.08
        6                   0                 0.5                 0.5                0.04
        7                 0.9                 0.9                 0.5                0.04
        8                 0.9                 0.8                 0.5                0.08
        9                 0.9                 0.7                 0.5                0.08
       10                 0.9                 0.6                 0.5                0.08
       11                 0.9                 0.5                 0.5                0.08
       12                 0.9                 0.4                 0.5                0.08
       13                 0.9                 0.3                 0.5                0.08
       14                 0.9                 0.2                 0.5                0.08
       15                 0.9                 0.1                 0.5                0.04
       16                 0.8                 0.8                 0.5                0.04
       17                 0.8                 0.7                 0.5                0.08
       18                 0.8                 0.6                 0.5                0.08
       19                 0.8                 0.5                 0.5                0.08
       20                 0.8                 0.4                 0.5                0.08
       21                 0.8                 0.3                 0.5                0.08
       22                 0.2                 0.8                 0.5                0.04
       23                 0.7                 0.7                 0.5                0.04
       24                 0.7                 0.6                 0.5                0.08
       25                 0.7                 0.5                 0.5                0.08
       26                 0.7                 0.4                 0.5                0.08
       27                 0.7                 0.3                 0.5                0.04
       28                 0.6                 0.6                 0.5                0.04
       29                 0.6                 0.5                 0.5                0.08
       30                 0.4                 0.6                 0.5                0.04
       31                 0.5                 0.5                 0.5                0.02
 DONE : INIT K-POINTS Time : 0.0758238 (SEC)





 >>>>>>>>>>>>>>>>>>>>>>>>>>>>>>>>>>>>>>>>>>>>>>>>>>>>>>>>>>>>>>>>>>>>>>
 |                                                                    |
 | Setup plane waves:                                                 |
 | Use the energy cutoff and the lattice vectors to generate the      |
 | dimensions of FFT grid. The number of FFT grid on each processor   |
 | is 'nrxx'. The number of plane wave basis in reciprocal space is   |
 | different for charege/potential and wave functions. We also set    |
 | the 'sticks' for the parallel of FFT.                              |
 |                                                                    |
 <<<<<<<<<<<<<<<<<<<<<<<<<<<<<<<<<<<<<<<<<<<<<<<<<<<<<<<<<<<<<<<<<<<<<<





 SETUP THE PLANE WAVE BASIS
     energy cutoff for wavefunc (unit:Ry) = 40
            [fft grid for wave functions] = 24, 24, 384
          [fft grid for charge/potential] = 24, 24, 384
                      [fft grid division] = 1, 1, 1
      [big fft grid for charge/potential] = 24, 24, 384
                                     nbxx = 221184
                                     nrxx = 221184

 SETUP PLANE WAVES FOR CHARGE/POTENTIAL
                    number of plane waves = 79703
                         number of sticks = 313

 SETUP PLANE WAVES FOR WAVE FUNCTIONS
                    number of plane waves = 16897
                         number of sticks = 109

 PARALLEL PW FOR CHARGE/POTENTIAL
     PROC   COLUMNS(POT)             PW
        1            313          79703
 --------------- sum -------------------
        1            313          79703

 PARALLEL PW FOR WAVE FUNCTIONS
     PROC     COLUMNS(W)             PW
        1            109          16897
 --------------- sum -------------------
        1            109          16897

 SETUP COORDINATES OF PLANE WAVES
              number of total plane waves = 79703

 SETUP COORDINATES OF PLANE WAVES
                            number of |g| = 4208
                                  max |g| = 228.078
                                  min |g| = 0
 DONE : INIT PLANEWAVE Time : 0.455795 (SEC)

                                     npwx = 10056

 SETUP NONLOCAL PSEUDOPOTENTIALS IN PLANE WAVE BASIS
 Al non-local projectors:
      TOTAL NUMBER OF NONLOCAL PROJECTORS = 0

 nhm = 0, not allocate some matrix. DONE : LOCAL POTENTIAL Time : 1.2735 (SEC)


 Init Non-Local PseudoPotential table : 
 Init Non-Local-Pseudopotential done.
 DONE : NON-LOCAL POTENTIAL Time : 1.27355 (SEC)

                                start_pot = atomic
 DONE : INIT POTENTIAL Time : 1.7985 (SEC)


 Make real space PAO into reciprocal space.
       max mesh points in Pseudopotential = 1601
     dq(describe PAO in reciprocal space) = 0.01
                                    max q = 764

 number of pseudo atomic orbitals for Al is 0
 DONE : INIT BASIS Time : 83.6377 (SEC)


 -------------------------------------------
 RELAX CELL : 1
 RELAX IONS : 1 (in total: 1)
 -------------------------------------------

 PW ALGORITHM --------------- ION=   1  ELEC=   1--------------------------------
  K-point    CG iter num      Time(Sec)
        1       8.066667      25.555372
        2       7.911111      23.001770
        3       7.977778      20.370428
        4       8.466667      25.253449
        5       8.511111      28.429879
        6       8.133333      33.930070
        7       8.111111      23.602797
        8       8.200000      30.914971
        9       8.377778      35.181193
       10       8.444444      31.956018
       11       8.377778      30.255491
       12       8.222222      24.607992
       13       8.444444      28.687900
       14       8.622222      33.287321
       15       8.088889      20.910703
       16       8.311111      29.336379
       17       8.444444      25.540089
       18       7.933333      24.683289
       19       8.355556      23.719003
       20       7.866667      26.244170
       21       8.155556      30.509811
       22       8.155556      24.370264
       23       8.155556      25.076196
       24       8.311111      23.208193
       25       8.266667      28.561800
       26       8.111111      29.157895
       27       8.288889      23.539449
       28       8.266667      25.007734
       29       8.066667      30.218483
       30       8.066667      27.727285
       31       7.955556      20.180775

 Density error is 1.881793452387
                          Error Threshold = 0.010000000000

       Energy                       Rydberg                            eV
   E_KohnSham              -93.568773644118            -1273.068476432225
     E_Harris              -93.694299768828            -1274.776346976146
      E_Fermi               +0.625013958080               +8.503751159416

 PW ALGORITHM --------------- ION=   1  ELEC=   2--------------------------------
  K-point    CG iter num      Time(Sec)
        1       2.711111       7.120369
        2       2.511111       6.884715
        3       2.444444      12.025943
        4       2.288889       8.391004
        5       2.155556       7.416826
        6       2.222222      11.096371
        7       2.622222       8.793400
        8       3.044444       9.663041
        9       2.333333       7.866850
       10       2.266667       6.135499
       11       2.200000      11.882353
       12       2.200000       9.446274
       13       2.288889       8.457825
       14       2.333333      11.637852
       15       3.088889       8.880682
       16       2.244444       8.179063
       17       2.333333       6.248488
       18       2.755556      10.629018
       19       2.866667      13.028457
       20       2.888889      12.172286
       21       2.622222       6.987663
       22       2.777778      11.846514
       23       2.155556       9.945806
       24       2.311111       8.878686
       25       2.711111       7.064351
       26       2.355556       9.865314
       27       2.511111       8.494595
       28       2.244444       6.381147
       29       2.200000       6.186270
       30       2.688889      11.136720
       31       2.222222       6.989868

 Density error is 11.754618270160
                          Error Threshold = 0.002851202201

       Energy                       Rydberg                            eV
   E_KohnSham              -83.904670807824            -1141.581611800669
     E_Harris              -93.816065700768            -1276.433057472806
      E_Fermi               +0.616173783785               +8.383474417697

 PW ALGORITHM --------------- ION=   1  ELEC=   3--------------------------------
  K-point    CG iter num      Time(Sec)
        1      28.622222      73.286700
        2      28.377778      79.007825
        3      29.933333      84.983685
        4      27.777778      78.989333
        5      27.111111      76.556797
        6      27.266667      88.231144
        7      29.711111      96.123026
        8      27.466667      92.122321
        9      27.933333      70.842233
       10      26.666667      77.170179
       11      26.555556      68.711717
       12      25.955556      75.872607
       13      26.733333      71.223329
       14      27.977778      88.770009
       15      26.733333      74.253075
       16      29.311111      81.025964
       17      28.222222      89.213956
       18      25.777778      80.992239
       19      27.266667      82.649762
       20      27.000000      73.600826
       21      27.733333      74.107630
       22      25.733333      72.555141
       23      27.800000      86.096606
       24      26.911111      86.136510
       25      27.266667      89.042340
       26      26.200000      74.189688
       27      26.111111      76.971367
       28      27.844444      77.415024
       29      26.955556      84.886885
       30      27.022222      85.216441
       31      26.755556      74.229288

 Density error is 11998.742948309571
                          Error Threshold = 0.002851202201

       Energy                       Rydberg                            eV
   E_KohnSham             -247.613537824188            -3368.955016347475
     E_Harris             -514.396741615854            -6998.726718609337
      E_Fermi               -5.049406945400              -68.700705978213

 PW ALGORITHM --------------- ION=   1  ELEC=   4--------------------------------
  K-point    CG iter num      Time(Sec)
        1      18.088889      66.891580
        2      19.088889      67.292090
        3      19.111111      61.274241
        4      17.977778      56.509098
        5      16.422222      51.046966
        6      15.444444      45.827306
        7      19.311111      60.340377
        8      19.355556      63.027835
        9      18.111111      52.152615
       10      17.555556      46.006963
       11      16.511111      57.693418
       12      15.488889      53.580698
       13      17.311111      48.630508
       14      18.400000      58.833562
       15      19.222222      60.830735
       16      18.822222      57.348103
       17      18.222222      49.597772
       18      17.355556      67.055082
       19      16.777778      53.557705
       20      16.488889      50.085775
       21      16.866667      52.411405
       22      17.333333      50.695089
       23      17.466667      51.897422
       24      16.733333      40.412852
       25      16.933333      45.623685
       26      15.244444      54.147589
       27      15.177778      50.387257
       28      15.355556      54.234229
       29      16.222222      58.885079
       30      16.333333      59.464045
       31      16.400000      61.492834

 Density error is 7243.760763047355
                          Error Threshold = 0.002851202201

       Energy                       Rydberg                            eV
   E_KohnSham             -148.815808342170            -2024.742945929444
     E_Harris             -275.953869699132            -3754.545013057739
      E_Fermi               -1.813874519871              -24.679028927260

 PW ALGORITHM --------------- ION=   1  ELEC=   5--------------------------------
  K-point    CG iter num      Time(Sec)
        1      15.622222      41.098452
        2      14.466667      54.919680
        3      13.822222      45.189888
        4      14.755556      57.424640
        5      13.955556      43.576339
        6      14.022222      42.735906
        7      14.066667      47.897561
        8      13.711111      47.685627
        9      14.688889      54.108234
       10      13.355556      28.577065
       11      13.644444      42.621422
       12      13.622222      40.920318
       13      13.622222      41.430792
       14      13.888889      45.276518
       15      14.044444      42.735839
       16      14.222222      36.813583
       17      13.977778      36.789611
       18      13.222222      47.450376
       19      12.733333      38.479144
       20      12.444444      32.583159
       21      12.844444      46.412032
       22      13.733333      35.325266
       23      14.266667      40.137001
       24      13.622222      50.596746
       25      12.400000      38.047973
       26      11.777778      40.049943
       27      11.600000      26.518841
       28      13.822222      33.801944
       29      13.577778      48.197829
       30      12.155556      39.458997
       31      13.377778      36.877476

 Density error is 4117.282506782117
                          Error Threshold = 0.002851202201

       Energy                       Rydberg                            eV
   E_KohnSham             -114.824752863040            -1562.270910379151
     E_Harris             -160.915717522555            -2189.370656065188
      E_Fermi               -0.217261693395               -2.955996987307

 PW ALGORITHM --------------- ION=   1  ELEC=   6--------------------------------
  K-point    CG iter num      Time(Sec)
        1      11.377778      40.795681
        2      10.666667      41.021924
        3      10.333333      29.774509
        4      10.466667      26.397040
        5      11.311111      31.705312
        6      11.644444      30.399777
        7      11.222222      33.794051
        8      10.533333      33.280479
        9      10.000000      36.231051
       10      11.000000      29.194892
       11      11.311111      29.987901
       12      11.200000      39.343359
       13      10.888889      33.336199
       14      10.155556      30.597665
       15      10.622222      34.593579
       16      10.200000      29.742858
       17      10.288889      31.798220
       18      10.777778      40.576844
       19      10.977778      40.148912
       20      10.644444      29.213621
       21      10.844444      33.657636
       22      10.488889      40.050844
       23      11.044444      31.341604
       24      11.088889      33.231123
       25      11.155556      37.986807
       26      11.044444      37.495200
       27      10.977778      33.374167
       28      11.244444      31.670948
       29      11.822222      31.828573
       30      10.955556      38.569670
       31      11.533333      36.810921

 Density error is 4973.862718456767
                          Error Threshold = 0.002851202201

       Energy                       Rydberg                            eV
   E_KohnSham              -94.603062778880            -1287.140702044484
     E_Harris             -131.344641388373            -1787.035524648501
      E_Fermi               +0.243227692990               +3.309282536063

 PW ALGORITHM --------------- ION=   1  ELEC=   7--------------------------------
  K-point    CG iter num      Time(Sec)
        1      12.822222      40.019493
        2      11.733333      42.318716
        3      11.822222      37.176673
        4      12.733333      36.115695
        5      12.977778      43.964945
        6      13.000000      39.581209
        7      12.400000      33.935751
        8      11.400000      31.039815
        9      11.977778      43.250918
       10      13.155556      38.362230
       11      13.000000      36.189406
       12      13.533333      42.090885
       13      13.200000      42.120651
       14      12.111111      35.015130
       15      11.577778      32.978296
       16      12.000000      37.055338
       17      12.066667      31.962237
       18      12.555556      36.988891
       19      13.022222      38.295532
       20      13.133333      39.892981
       21      13.688889      50.011009
       22      12.622222      38.125797
       23      13.111111      41.327827
       24      13.000000      47.760754
       25      13.688889      44.717746
       26      13.244444      38.930084
       27      13.466667      39.884214
       28      13.155556      45.130029
       29      13.044444      35.659693
       30      13.133333      42.258449
       31      12.955556      40.303530

 Density error is 3296.075184004144
                          Error Threshold = 0.002851202201

       Energy                       Rydberg                            eV
   E_KohnSham              -99.067739915241            -1347.885750829317
     E_Harris             -117.266841625411            -1595.497232569167
      E_Fermi               +0.385930225611               +5.250850098735

 PW ALGORITHM --------------- ION=   1  ELEC=   8--------------------------------
  K-point    CG iter num      Time(Sec)
        1       7.400000      25.741512
        2       7.044444      24.443979
        3       7.400000      25.468597
        4       6.911111      21.700299
        5       7.488889      19.572815
        6       7.866667      23.376876
        7       7.022222      17.210300
        8       7.733333      32.436677
        9       7.377778      24.673498
       10       7.133333      26.381230
       11       7.333333      26.089676
       12       7.422222      17.933161
       13       7.422222      17.354143
       14       7.577778      28.100343
       15       8.266667      22.310652
       16       7.422222      20.773901
       17       7.244444      23.516996
       18       7.555556      27.081327
       19       7.488889      25.544199
       20       7.200000      21.206430
       21       6.866667      21.263418
       22       6.866667      21.858262
       23       7.111111      26.081244
       24       7.222222      22.883023
       25       7.333333      21.972242
       26       6.866667      22.491425
       27       6.688889      28.607380
       28       7.377778      31.102931
       29       7.177778      18.465293
       30       7.333333      20.155997
       31       7.777778      29.416007

 Density error is 1930.884415474068
                          Error Threshold = 0.002851202201

       Energy                       Rydberg                            eV
   E_KohnSham              -98.550775698055            -1340.852091813475
     E_Harris             -103.756712692154            -1411.682498362212
      E_Fermi               +0.537809552498               +7.317274352801

 PW ALGORITHM --------------- ION=   1  ELEC=   9--------------------------------
  K-point    CG iter num      Time(Sec)
        1       2.666667       7.627546
        2       3.711111      13.763489
        3       4.533333      15.338102
        4       4.177778      16.948296
        5       5.088889      16.709341
        6       4.488889      11.926855
        7       3.688889      14.979077
        8       3.777778      15.839525
        9       4.377778      14.278021
       10       5.044444      15.093667
       11       4.911111      14.582137
       12       4.755556      17.502762
       13       4.800000      17.257178
       14       4.911111      15.405444
       15       3.400000      10.590392
       16       4.355556      15.791362
       17       4.577778      20.804448
       18       4.600000      13.660755
       19       4.955556      17.512292
       20       4.577778      13.635653
       21       5.155556      12.291914
       22       4.466667      14.480376
       23       4.200000      19.378996
       24       4.577778      17.024319
       25       5.000000      20.140236
       26       4.733333      11.587714
       27       4.711111      13.910676
       28       5.133333      18.024138
       29       4.622222      13.436030
       30       5.044444      23.325309
       31       4.333333      14.453013

 Density error is 1513.610095395168
                          Error Threshold = 0.002851202201

       Energy                       Rydberg                            eV
   E_KohnSham               +0.660133603163               +8.981578444291
     E_Harris             -100.167689684832            -1362.851335209535
      E_Fermi               +0.571453182984               +7.775019428814

 PW ALGORITHM --------------- ION=   1  ELEC=  10--------------------------------
  K-point    CG iter num      Time(Sec)
        1      24.711111      70.803189
        2      24.266667      75.427073
        3      24.133333      81.074568
        4      23.066667      72.360716
        5      21.800000      72.973715
        6      22.688889      66.946082
        7      24.155556      76.008554
        8      22.711111      75.981687
        9      23.066667      66.043090
       10      22.644444      62.987560
       11      21.644444      75.589195
       12      22.444444      67.202499
       13      21.977778      52.411864
       14      22.822222      64.918082
       15      22.466667      76.749643
       16      24.222222      71.106752
       17      23.511111      72.211553
       18      22.733333      59.866263
       19      22.688889      59.900257
       20      21.933333      62.834613
       21      21.955556      67.680930
       22      23.088889      51.793167
       23      23.044444      64.885227
       24      22.533333      66.264967
       25      22.644444      68.510334
       26      23.155556      72.274119
       27      22.355556      60.307713
       28      22.977778      72.799403
       29      22.555556      68.148262
       30      21.466667      55.332983
       31      22.444444      59.872283

 Density error is 12395.275306555848
                          Error Threshold = 0.002851202201

       Energy                       Rydberg                            eV
   E_KohnSham             -133.497850203059            -1816.331433512064
     E_Harris             -316.807970464956            -4310.393570139117
      E_Fermi               -2.043485082026              -27.803040893547

 PW ALGORITHM --------------- ION=   1  ELEC=  11--------------------------------
  K-point    CG iter num      Time(Sec)
        1      11.600000      35.212330
        2      12.488889      48.588584
        3      11.600000      38.013915
        4      11.133333      37.744362
        5      10.622222      32.355375
        6      10.177778      39.230855
        7      12.066667      36.243460
        8      12.555556      40.146226
        9      11.577778      30.362515
       10      12.133333      35.203114
       11      11.511111      27.582593
       12      11.488889      39.508426
       13      11.955556      38.565724
       14      12.200000      47.459013
       15      12.244444      42.089796
       16      11.977778      30.951888
       17      11.888889      41.358351
       18      11.533333      36.401575
       19      11.888889      40.099489
       20      10.755556      32.330288
       21      10.977778      36.556317
       22      11.355556      39.600631
       23      11.511111      39.939444
       24      12.133333      47.014815
       25      11.577778      36.815153
       26      10.888889      35.939374
       27      10.822222      26.530327
       28      10.577778      33.400537
       29      11.577778      38.716544
       30      10.622222      25.438410
       31      10.022222      34.898113

 Density error is 9106.995151245950
                          Error Threshold = 0.002851202201

       Energy                       Rydberg                            eV
   E_KohnSham             -120.250414791300            -1636.090828025156
     E_Harris             -150.361306083876            -2045.770521462786
      E_Fermi               +0.160071495858               +2.177884431056

 PW ALGORITHM --------------- ION=   1  ELEC=  12--------------------------------
  K-point    CG iter num      Time(Sec)
        1       7.022222      27.521146
        2       8.311111      28.118269
        3       5.600000      22.059872
        4       5.000000      14.042555
        5       4.577778      11.564050
        6       4.222222      13.741853
        7       8.244444      32.452398
        8       6.622222      23.426789
        9       6.755556      21.982792
       10       4.844444      20.099555
       11       4.466667      20.685658
       12       4.266667      15.790076
       13       4.755556      14.885697
       14       6.666667      23.349727
       15       7.177778      17.744947
       16       6.200000      25.767867
       17       6.644444      22.950860
       18       5.288889      21.682018
       19       5.022222      21.354029
       20       4.066667      16.365949
       21       5.111111      15.187350
       22       5.888889      24.748695
       23       5.355556      19.312790
       24       4.800000      15.613800
       25       4.844444      12.979308
       26       4.466667      16.147474
       27       4.377778      15.525224
       28       4.600000      20.361200
       29       4.377778      17.448289
       30       4.066667      17.216971
       31       4.111111      15.544404

 Density error is 6777.185449888595
                          Error Threshold = 0.002851202201

       Energy                       Rydberg                            eV
   E_KohnSham              -73.720887678115            -1003.024134040353
     E_Harris             -123.146775257747            -1675.497833830774
      E_Fermi               +0.433353204378               +5.896072826098

 PW ALGORITHM --------------- ION=   1  ELEC=  13--------------------------------
  K-point    CG iter num      Time(Sec)
        1       9.177778      33.517302
        2       8.644444      30.871618
        3      10.044444      36.280762
        4      10.911111      41.762779
        5      10.844444      29.387238
        6      10.733333      41.844574
        7       8.600000      30.159717
        8       9.000000      34.253878
        9      10.244444      34.460695
       10      11.200000      29.195362
       11      10.711111      26.592144
       12      10.600000      31.552360
       13      10.977778      37.766667
       14      10.355556      35.103170
       15       9.288889      24.604229
       16       9.600000      30.748143
       17      10.400000      30.076201
       18      10.333333      35.519120
       19      10.755556      37.420022
       20       9.911111      30.366397
       21      11.088889      37.941865
       22      10.222222      37.062761
       23      11.177778      38.698589
       24      11.511111      39.268346
       25      10.777778      35.419768
       26       9.333333      22.687947
       27       9.511111      25.599891
       28      11.266667      40.894130
       29      10.555556      38.053117
       30       9.733333      34.561437
       31      11.177778      25.480070

 Density error is 208.446776980285
                          Error Threshold = 0.002851202201

       Energy                       Rydberg                            eV
   E_KohnSham              -93.550599154735            -1272.821199818381
     E_Harris              -94.446172310021            -1285.006097706115
      E_Fermi               +0.598476063803               +8.142684584327

 PW ALGORITHM --------------- ION=   1  ELEC=  14--------------------------------
  K-point    CG iter num      Time(Sec)
        1       3.000000      11.904219
        2       3.155556      14.757135
        3       3.711111      12.194247
        4       3.244444      11.359307
        5       2.800000      12.584290
        6       2.755556      13.547237
        7       3.422222      12.651265
        8       3.333333      13.232849
        9       4.177778      10.581477
       10       3.377778      10.568782
       11       3.111111      13.012599
       12       3.177778      13.967827
       13       3.444444      16.670446
       14       4.222222      19.585651
       15       3.400000      13.525343
       16       3.644444       9.591876
       17       4.333333      13.531979
       18       4.200000      11.681847
       19       4.111111      11.387489
       20       3.533333       9.727376
       21       4.066667      15.156756
       22       4.222222      13.026990
       23       3.200000       8.249991
       24       3.333333      12.977837
       25       4.311111      19.421307
       26       5.355556      18.319836
       27       4.933333      19.157331
       28       2.777778      11.556950
       29       3.088889       9.171927
       30       3.288889       8.380419
       31       2.800000      11.084431

 Density error is 182.884394977313
                          Error Threshold = 0.002851202201

       Energy                       Rydberg                            eV
   E_KohnSham              -92.466174649702            -1258.066847499097
     E_Harris              -94.501564022085            -1285.759740612152
      E_Fermi               +0.605782257607               +8.242090450764

 PW ALGORITHM --------------- ION=   1  ELEC=  15--------------------------------
  K-point    CG iter num      Time(Sec)
        1       2.555556       6.799610
        2       4.044444      10.068567
        3       4.444444      13.053913
        4       3.600000      15.409736
        5       3.155556       9.373060
        6       3.044444      10.102604
        7       4.066667      11.500113
        8       5.044444      20.001174
        9       5.044444      20.591389
       10       4.111111      15.989825
       11       3.444444       9.744274
       12       3.555556      16.373681
       13       4.244444      13.115073
       14       5.111111      19.039488
       15       4.977778      19.511683
       16       4.511111      15.303396
       17       4.911111      16.961764
       18       5.555556      23.074117
       19       5.400000      14.661438
       20       4.733333      19.557491
       21       5.266667      21.081135
       22       5.377778      15.634886
       23       3.555556      15.502891
       24       3.911111      16.784857
       25       5.422222      20.636626
       26       5.777778      20.980230
       27       5.866667      21.084394
       28       3.155556       7.983988
       29       3.444444      11.581750
       30       4.711111      16.900613
       31       3.088889       8.901597

 Density error is 23.302367194348
                          Error Threshold = 0.002851202201

       Energy                       Rydberg                            eV
   E_KohnSham              -93.442612641560            -1271.351967932051
     E_Harris              -93.785784751723            -1276.021064024953
      E_Fermi               +0.607132866774               +8.260466431195

 PW ALGORITHM --------------- ION=   1  ELEC=  16--------------------------------
  K-point    CG iter num      Time(Sec)
        1       2.088889       5.617149
        2       2.400000       9.840842
        3       2.533333       6.709695
        4       2.311111      10.191164
        5       2.400000      10.651353
        6       2.266667       9.060936
        7       2.822222      13.883656
        8       2.733333      12.552021
        9       2.711111      13.536584
       10       2.466667       9.879143
       11       2.355556       9.633757
       12       2.355556       9.404087
       13       2.444444       8.089746
       14       2.600000      11.456400
       15       2.711111       8.005024
       16       2.444444       9.210279
       17       2.577778      12.976708
       18       3.377778      13.152024
       19       3.000000      11.619479
       20       3.000000      11.617986
       21       3.000000       8.616621
       22       3.222222      11.569648
       23       2.333333      10.577488
       24       2.466667       6.513729
       25       2.777778      11.857901
       26       2.666667       7.401867
       27       2.711111       7.194105
       28       2.311111       6.309247
       29       2.377778       8.779991
       30       2.577778      11.012747
       31       2.266667       8.511104

 Density error is 10.837833296273
                          Error Threshold = 0.002851202201

       Energy                       Rydberg                            eV
   E_KohnSham              -93.726658190919            -1275.216605894872
     E_Harris              -93.729786991964            -1275.259175416987
      E_Fermi               +0.612518750139               +8.333745133728

 PW ALGORITHM --------------- ION=   1  ELEC=  17--------------------------------
  K-point    CG iter num      Time(Sec)
        1       2.000000       5.499870
        2       2.000000       5.495856
        3       2.000000      10.627412
        4       2.000000      10.441405
        5       2.000000       7.934317
        6       2.000000       8.378366
        7       2.000000       5.885621
        8       2.000000       5.549828
        9       2.000000       7.124459
       10       2.000000      10.459602
       11       2.000000       6.207978
       12       2.000000       5.517840
       13       2.000000       5.549208
       14       2.000000       5.609957
       15       2.000000       6.505932
       16       2.000000       8.565883
       17       2.000000       9.879855
       18       2.000000       6.246801
       19       2.000000       5.474522
       20       2.000000       5.633492
       21       2.000000       6.841291
       22       2.000000      10.174393
       23       2.000000       9.417902
       24       2.000000       7.170636
       25       2.000000       5.614850
       26       2.000000       5.403016
       27       2.000000       6.380339
       28       2.000000       8.862468
       29       2.000000       5.878509
       30       2.000000       9.214370
       31       2.000000      10.508399

 Density error is 19.795140682363
                          Error Threshold = 0.002851202201

       Energy                       Rydberg                            eV
   E_KohnSham              -93.727326376779            -1275.225697029884
     E_Harris              -93.765405047663            -1275.743783926183
      E_Fermi               +0.612264834586               +8.330290435391

 PW ALGORITHM --------------- ION=   1  ELEC=  18--------------------------------
  K-point    CG iter num      Time(Sec)
        1       2.000000       8.114088
        2       2.000000       5.510379
        3       2.000000       6.456622
        4       2.000000      10.797934
        5       2.000000       8.271494
        6       2.000000       7.260563
        7       2.000000       9.879344
        8       2.000000       8.639587
        9       2.000000       8.812160
       10       2.000000       7.330815
       11       2.000000       6.487998
       12       2.000000       9.794939
       13       2.000000      10.580248
       14       2.000000       8.520052
       15       2.000000       5.491592
       16       2.000000       5.530244
       17       2.000000       9.037019
       18       2.000000       7.140561
       19       2.000000       7.628124
       20       2.000000       9.809221
       21       2.000000       5.740090
       22       2.000000       9.504451
       23       2.000000       9.305250
       24       2.000000      10.930204
       25       2.000000       6.226620
       26       2.000000      10.731568
       27       2.000000      10.619610
       28       2.000000      10.539884
       29       2.000000       6.225435
       30       2.000000       6.726308
       31       2.000000       9.433549

 Density error is 17.742044542086
                          Error Threshold = 0.002851202201

       Energy                       Rydberg                            eV
   E_KohnSham              -93.607923381158            -1273.601135931174
     E_Harris              -93.754887486944            -1275.600685171340
      E_Fermi               +0.609575981937               +8.293706718290

 PW ALGORITHM --------------- ION=   1  ELEC=  19--------------------------------
  K-point    CG iter num      Time(Sec)
        1       2.000000      10.715288
        2       2.000000       7.502333
        3       2.000000       8.088147
        4       2.000000       8.364183
        5       2.000000       7.558981
        6       2.000000       5.725707
        7       2.000000       5.609047
        8       2.000000       6.259118
        9       2.000000       8.045299
       10       2.000000       5.643325
       11       2.000000       9.068528
       12       2.000000       9.889185
       13       2.000000      10.249904
       14       2.000000       9.934094
       15       2.000000      10.111042
       16       2.000000      10.802001
       17       2.000000       5.666483
       18       2.000000       8.943890
       19       2.000000      10.152336
       20       2.000000       6.737617
       21       2.000000       5.648599
       22       2.000000       8.089421
       23       2.000000      11.430771
       24       2.000000       8.346006
       25       2.000000       5.784504
       26       2.000000       9.988989
       27       2.000000       9.447371
       28       2.000000      10.107461
       29       2.000000       6.652151
       30       2.000000       7.218754
       31       2.000000       5.476954

 Density error is 2.155289938110
                          Error Threshold = 0.002851202201

       Energy                       Rydberg                            eV
   E_KohnSham              -93.657178184676            -1274.271281912891
     E_Harris              -93.684680613526            -1274.645471654095
      E_Fermi               +0.615194928649               +8.370156410326

 PW ALGORITHM --------------- ION=   1  ELEC=  20--------------------------------
  K-point    CG iter num      Time(Sec)
        1       2.000000       5.410971
        2       2.000000       6.247350
        3       2.000000      10.068529
        4       2.000000       9.485416
        5       2.000000       9.011542
        6       2.000000       6.576638
        7       2.000000       8.248295
        8       2.000000       7.770976
        9       2.000000       5.341736
       10       2.000000       6.695862
       11       2.000000       5.392385
       12       2.000000       5.548120
       13       2.000000      10.011259
       14       2.000000       9.498675
       15       2.000000       7.769763
       16       2.000000      10.108282
       17       2.000000       9.313490
       18       2.000000       6.463140
       19       2.000000       6.588389
       20       2.000000       8.358803
       21       2.000000       8.342640
       22       2.000000      10.150960
       23       2.000000       8.130619
       24       2.000000       6.113725
       25       2.000000       6.410501
       26       2.000000       8.474817
       27       2.000000       9.101854
       28       2.000000       8.745080
       29       2.000000       7.882073
       30       2.000000       6.979130
       31       2.000000       6.922730

 Density error is 0.576875259654
                          Error Threshold = 0.002851202201

       Energy                       Rydberg                            eV
   E_KohnSham              -93.667130504280            -1274.406690167817
     E_Harris              -93.680223906090            -1274.584835038638
      E_Fermi               +0.617163295554               +8.396937415993

 PW ALGORITHM --------------- ION=   1  ELEC=  21--------------------------------
  K-point    CG iter num      Time(Sec)
        1       2.155556       8.811346
        2       2.200000       6.898216
        3       2.000000       9.158404
        4       2.000000       5.563157
        5       2.000000       8.464630
        6       2.000000       5.639351
        7       2.222222      10.177658
        8       2.533333      11.005400
        9       2.200000       6.144447
       10       2.088889       6.889762
       11       2.000000       6.816814
       12       2.000000       9.357656
       13       2.000000       6.974036
       14       2.044444      10.592452
       15       2.577778      10.177849
       16       2.000000       8.938482
       17       2.177778       7.514959
       18       2.511111       9.166672
       19       2.266667      10.899446
       20       2.133333      11.637430
       21       2.088889       5.840625
       22       2.088889       9.560358
       23       2.000000       9.689995
       24       2.000000       8.732143
       25       2.288889       7.964014
       26       2.044444       8.055355
       27       2.044444      10.338911
       28       2.000000       5.462303
       29       2.000000       7.727624
       30       2.377778      12.938557
       31       2.000000       7.693729

 Density error is 1.434806348100
                          Error Threshold = 0.000874053424

       Energy                       Rydberg                            eV
   E_KohnSham              -93.674718946883            -1274.509936226164
     E_Harris              -93.685610582204            -1274.658124527078
      E_Fermi               +0.615279593895               +8.371308340095

 PW ALGORITHM --------------- ION=   1  ELEC=  22--------------------------------
  K-point    CG iter num      Time(Sec)
        1       2.000000      10.083986
        2       2.000000      10.073420
        3       2.000000       9.933898
        4       2.000000       6.536713
        5       2.000000       5.635478
        6       2.000000       8.667090
        7       2.000000      10.366960
        8       2.000000      10.332279
        9       2.000000       9.268214
       10       2.000000       7.863030
       11       2.000000       8.627665
       12       2.000000       5.556923
       13       2.000000       6.483153
       14       2.000000       9.211676
       15       2.000000       5.469408
       16       2.000000       5.686325
       17       2.000000       5.527116
       18       2.000000       5.804999
       19       2.000000       9.595837
       20       2.000000      10.461775
       21       2.000000       9.209621
       22       2.000000      10.197869
       23       2.000000      10.153934
       24       2.000000      10.076557
       25       2.000000       7.140512
       26       2.000000       9.038244
       27       2.000000       6.453086
       28       2.000000       8.834567
       29       2.000000       8.385304
       30       2.000000      10.060986
       31       2.000000      10.115299

 Density error is 0.723846479365
                          Error Threshold = 0.000874053424

       Energy                       Rydberg                            eV
   E_KohnSham              -93.669467082390            -1274.438480943933
     E_Harris              -93.684311189774            -1274.640445386088
      E_Fermi               +0.615953059812               +8.380471313976

 PW ALGORITHM --------------- ION=   1  ELEC=  23--------------------------------
  K-point    CG iter num      Time(Sec)
        1       2.000000      10.053170
        2       2.044444       7.876228
        3       2.088889       5.784741
        4       2.088889       6.617822
        5       2.044444       7.534801
        6       2.088889      10.419580
        7       2.000000       6.413178
        8       2.000000       5.936111
        9       2.044444       5.755992
       10       2.044444       6.102854
       11       2.088889       5.680428
       12       2.044444       5.705371
       13       2.088889      11.127335
       14       2.088889       8.190684
       15       2.000000       9.200165
       16       2.044444       6.263896
       17       2.088889      10.377125
       18       2.000000      10.168528
       19       2.000000       8.499101
       20       2.044444       9.065605
       21       2.133333       5.895008
       22       2.088889       6.568845
       23       2.133333      10.778176
       24       2.044444       9.479748
       25       2.000000      10.585969
       26       2.044444       6.924122
       27       2.044444       5.560896
       28       2.044444       6.168481
       29       2.088889       7.489719
       30       2.088889       7.395709
       31       2.044444       9.885384

 Density error is 1.384735010964
                          Error Threshold = 0.000874053424

       Energy                       Rydberg                            eV
   E_KohnSham              -93.669135920434            -1274.433975254372
     E_Harris              -93.691346177508            -1274.736161304631
      E_Fermi               +0.615079925628               +8.368591713950

 PW ALGORITHM --------------- ION=   1  ELEC=  24--------------------------------
  K-point    CG iter num      Time(Sec)
        1       2.000000       7.499475
        2       2.000000       7.740951
        3       2.000000       8.265882
        4       2.000000       6.031267
        5       2.000000      11.152002
        6       2.000000       6.066930
        7       2.000000       5.535626
        8       2.000000       8.712540
        9       2.000000       8.085105
       10       2.000000       7.962365
       11       2.000000       6.833313
       12       2.000000       8.573524
       13       2.000000       7.424674
       14       2.000000       9.258172
       15       2.133333       6.085317
       16       2.000000       7.930429
       17       2.000000       6.181758
       18       2.000000       5.464713
       19       2.000000       8.564730
       20       2.000000       5.549170
       21       2.000000       9.458523
       22       2.000000       8.786356
       23       2.000000       6.836071
       24       2.000000      10.257804
       25       2.000000       8.254908
       26       2.000000       5.452343
       27       2.000000       5.715440
       28       2.000000       7.868879
       29       2.000000       9.244016
       30       2.000000       8.271242
       31       2.000000      10.055433

 Density error is 0.468293008767
                          Error Threshold = 0.000874053424

       Energy                       Rydberg                            eV
   E_KohnSham              -93.685988393582            -1274.663264914579
     E_Harris              -93.686572807517            -1274.671216274093
      E_Fermi               +0.615909625100               +8.379880354399

 PW ALGORITHM --------------- ION=   1  ELEC=  25--------------------------------
  K-point    CG iter num      Time(Sec)
        1       2.000000       6.972231
        2       2.000000       5.384108
        3       2.000000       8.600127
        4       2.000000       7.501599
        5       2.000000       5.448697
        6       2.000000       5.648156
        7       2.000000       9.221716
        8       2.000000       5.586464
        9       2.000000       6.124403
       10       2.000000      11.111528
       11       2.000000      10.947286
       12       2.000000       9.908672
       13       2.000000      10.086218
       14       2.000000       6.626907
       15       2.000000       7.430241
       16       2.000000       7.606748
       17       2.000000       5.406041
       18       2.000000       6.176548
       19       2.000000       8.237794
       20       2.000000       8.237558
       21       2.000000       6.184735
       22       2.000000       6.545847
       23       2.000000      10.704398
       24       2.000000       9.753137
       25       2.000000       8.343287
       26       2.000000       7.649870
       27       2.000000       9.233352
       28       2.000000       9.319703
       29       2.000000       9.610621
       30       2.000000       7.197415
       31       2.000000       7.369473

 Density error is 0.737576044387
                          Error Threshold = 0.000709534862

       Energy                       Rydberg                            eV
   E_KohnSham              -93.682422451180            -1274.614747779181
     E_Harris              -93.687505548655            -1274.683906868330
      E_Fermi               +0.615408173537               +8.373057755873

 PW ALGORITHM --------------- ION=   1  ELEC=  26--------------------------------
  K-point    CG iter num      Time(Sec)
        1       2.000000      10.685269
        2       2.000000       7.540334
        3       2.000000       5.641446
        4       2.000000       5.742548
        5       2.000000       7.039429
        6       2.000000      10.501892
        7       2.000000       9.304180
        8       2.000000       9.996066
        9       2.000000       5.569277
       10       2.000000       6.160762
       11       2.000000       7.959673
       12       2.000000       6.756950
       13       2.000000       6.714294
       14       2.000000      10.512728
       15       2.000000      10.622315
       16       2.000000      10.153362
       17       2.000000      10.640627
       18       2.000000      10.601288
       19       2.000000      10.159605
       20       2.000000       8.166385
       21       2.000000       5.822586
       22       2.000000      10.081064
       23       2.000000      10.164388
       24       2.000000       6.201296
       25       2.000000       5.512687
       26       2.000000       5.498075
       27       2.000000       5.823154
       28       2.000000       5.577906
       29       2.000000       6.839726
       30       2.000000       6.073168
       31       2.000000       5.692481

 Density error is 1.493252611593
                          Error Threshold = 0.000709534862

       Energy                       Rydberg                            eV
   E_KohnSham              -93.633622181196            -1273.950786043458
     E_Harris              -93.690930500767            -1274.730505732429
      E_Fermi               +0.615363301747               +8.372447243857

 PW ALGORITHM --------------- ION=   1  ELEC=  27--------------------------------
  K-point    CG iter num      Time(Sec)
        1       3.711111      17.419687
        2       3.333333      12.736808
        3       2.644444       7.028299
        4       2.355556      12.626920
        5       2.333333      13.956927
        6       2.333333      11.587477
        7       3.377778      11.655195
        8       4.755556      20.252806
        9       2.777778       7.339939
       10       2.600000       8.771270
       11       2.466667       6.855112
       12       2.400000       8.375287
       13       2.355556      11.046194
       14       2.844444      12.375639
       15       4.844444      20.671451
       16       2.600000      12.271242
       17       2.733333      11.730290
       18       3.955556      12.422893
       19       3.466667      16.613256
       20       3.777778      14.921226
       21       3.955556      13.250889
       22       3.755556      16.293599
       23       2.311111       7.858878
       24       2.422222       6.462607
       25       3.711111      15.756998
       26       3.111111      10.550136
       27       2.977778      14.207954
       28       2.288889      11.356914
       29       2.577778       6.890197
       30       3.333333      14.077310
       31       2.444444       7.185373

 Density error is 35.521344243129
                          Error Threshold = 0.000709534862

       Energy                       Rydberg                            eV
   E_KohnSham              -93.556000099263            -1272.894683438545
     E_Harris              -93.833218062907            -1276.666427332059
      E_Fermi               +0.607413850599               +8.264289412272

 PW ALGORITHM --------------- ION=   1  ELEC=  28--------------------------------
  K-point    CG iter num      Time(Sec)
        1       2.088889       7.711319
        2       3.222222       8.574845
        3       2.533333       8.768370
        4       2.266667      10.558873
        5       2.311111       7.711330
        6       2.244444      11.276374
        7       2.822222      11.721425
        8       3.577778      12.373966
        9       2.600000       8.501187
       10       2.533333      12.331156
       11       2.311111       6.281239
       12       2.266667       6.157817
       13       2.400000      11.454276
       14       2.555556      12.536340
       15       3.622222      11.317220
       16       2.466667       6.593471
       17       2.555556       7.134389
       18       3.755556      17.240551
       19       3.244444      11.041852
       20       3.177778      14.919541
       21       3.400000      15.972387
       22       3.288889      13.071512
       23       2.288889       9.914171
       24       2.311111       8.888669
       25       3.400000      10.949603
       26       2.733333      13.622384
       27       3.000000      14.081532
       28       2.333333       9.070196
       29       2.355556       8.684210
       30       3.066667      13.644279
       31       2.222222       6.005744

 Density error is 0.374679351661
                          Error Threshold = 0.000709534862

       Energy                       Rydberg                            eV
   E_KohnSham              -93.676784364540            -1274.538037675052
     E_Harris              -93.679594253007            -1274.576268168947
      E_Fermi               +0.617055735471               +8.395473985980

 PW ALGORITHM --------------- ION=   1  ELEC=  29--------------------------------
  K-point    CG iter num      Time(Sec)
        1       2.000000       5.505323
        2       2.000000       5.811333
        3       2.000000       8.956719
        4       2.000000       6.264847
        5       2.000000       5.362425
        6       2.000000      10.057836
        7       2.000000       7.085540
        8       2.000000       5.370513
        9       2.000000       7.408083
       10       2.000000       5.567832
       11       2.000000       7.335900
       12       2.000000      10.283660
       13       2.000000       9.587580
       14       2.000000       7.578625
       15       2.000000       7.191017
       16       2.000000       6.503715
       17       2.000000       9.293813
       18       2.000000      11.070499
       19       2.000000      11.036358
       20       2.000000      10.750218
       21       2.000000       6.040924
       22       2.000000       6.853774
       23       2.000000      10.282915
       24       2.000000       6.224496
       25       2.000000       7.375303
       26       2.000000      10.186659
       27       2.000000       5.596371
       28       2.000000      10.084315
       29       2.000000       7.316284
       30       2.044444       5.779956
       31       2.000000       6.870210

 Density error is 0.084494318257
                          Error Threshold = 0.000567695987

       Energy                       Rydberg                            eV
   E_KohnSham              -93.680781000691            -1274.592414699540
     E_Harris              -93.682411573756            -1274.614599784228
      E_Fermi               +0.616631406939               +8.389700700130

 PW ALGORITHM --------------- ION=   1  ELEC=  30--------------------------------
  K-point    CG iter num      Time(Sec)
        1       3.400000      14.960386
        2       2.266667       6.599389
        3       2.133333       9.632765
        4       2.155556      10.836256
        5       2.177778      11.075115
        6       2.288889      11.696378
        7       2.377778       6.697655
        8       3.422222      11.587036
        9       2.311111       6.337497
       10       2.311111       7.341160
       11       2.288889       6.972365
       12       2.244444       9.004916
       13       2.088889       7.452511
       14       2.422222      11.130685
[...]
      38       8.984735       0.000000
      39       9.537147       0.000000
      40       9.655754       0.000000
      41      10.163637       0.000000
      42      10.200760       0.000000
      43      10.369615       0.000000
      44      10.407552       0.000000
      45      11.275711       0.000000

 25/31 kpoint (Cartesian) = 0.989949 0.244949 0.039365 (9888 pws)
       1       1.010899       0.080000
       2       1.033060       0.080000
       3       1.125382       0.080000
       4       1.147544       0.080000
       5       1.337397       0.080000
       6       1.405536       0.080000
       7       1.708872       0.080000
       8       1.747752       0.080000
       9       2.106803       0.080000
      10       2.254233       0.080000
      11       2.784818       0.080000
      12       2.791395       0.080000
      13       3.432441       0.080000
      14       3.552867       0.080000
      15       4.266321       0.080000
      16       4.302886       0.080000
      17       5.156241       0.080000
      18       5.202951       0.080000
      19       5.968400       0.080000
      20       6.010511       0.080000
      21       6.053572       0.080000
      22       6.086069       0.080000
      23       6.213044       0.080000
      24       6.220329       0.080000
      25       6.375289       0.080000
      26       6.453732       0.080000
      27       6.742424       0.080000
      28       6.768989       0.080000
      29       6.994196       0.080000
      30       7.147917       0.080000
      31       7.502110       0.080000
      32       7.541158       0.080000
      33       7.941513       0.080000
      34       7.972837       0.080000
      35       8.390339       0.031651
      36       8.392428       0.030750
      37       8.510648       0.002025
      38       8.564506       0.000268
      39       8.585577       0.000106
      40       8.644219       0.000005
      41       8.827964       0.000000
      42       8.846316       0.000000
      43       8.988873       0.000000
      44       9.058585       0.000000
      45       9.226322       0.000000

 26/31 kpoint (Cartesian) = 0.989949 0.081650 0.039365 (9894 pws)
       1       3.019056       0.080000
       2       3.040805       0.080000
       3       3.132948       0.080000
       4       3.154315       0.080000
       5       3.341992       0.080000
       6       3.409126       0.080000
       7       3.708661       0.080000
       8       3.748067       0.080000
       9       4.101682       0.080000
      10       4.243721       0.080000
      11       4.757879       0.080000
      12       4.763248       0.080000
      13       5.351297       0.080000
      14       5.469418       0.080000
      15       5.478903       0.080000
      16       5.509955       0.080000
      17       5.557306       0.080000
      18       5.558558       0.080000
      19       5.607560       0.080000
      20       5.616717       0.080000
      21       5.656477       0.080000
      22       5.680840       0.080000
      23       5.812891       0.080000
      24       5.871118       0.080000
      25       5.886907       0.080000
      26       5.918027       0.080000
      27       6.092343       0.080000
      28       6.106434       0.080000
      29       6.189960       0.080000
      30       6.250015       0.080000
      31       6.279116       0.080000
      32       6.288688       0.080000
      33       6.522484       0.080000
      34       6.587755       0.080000
      35       6.633626       0.080000
      36       6.833102       0.080000
      37       7.165166       0.080000
      38       7.165866       0.080000
      39       7.287873       0.080000
      40       7.312709       0.080000
      41       7.428672       0.080000
      42       7.430264       0.080000
      43       7.755680       0.080000
      44       7.820008       0.080000
      45       8.206819       0.079171

 27/31 kpoint (Cartesian) = 0.989949 -0.081650 0.039365 (9894 pws)
       1       3.019267       0.040000
       2       3.041376       0.040000
       3       3.132900       0.040000
       4       3.155112       0.040000
       5       3.341835       0.040000
       6       3.410066       0.040000
       7       3.708673       0.040000
       8       3.749147       0.040000
       9       4.101753       0.040000
      10       4.243434       0.040000
      11       4.758614       0.040000
      12       4.762255       0.040000
      13       5.350240       0.040000
      14       5.460193       0.040000
      15       5.465063       0.040000
      16       5.479926       0.040000
      17       5.561403       0.040000
      18       5.575086       0.040000
      19       5.579059       0.040000
      20       5.600045       0.040000
      21       5.665318       0.040000
      22       5.701260       0.040000
      23       5.815888       0.040000
      24       5.875082       0.040000
      25       5.879594       0.040000
      26       5.946336       0.040000
      27       6.095536       0.040000
      28       6.114736       0.040000
      29       6.193627       0.040000
      30       6.259406       0.040000
      31       6.271794       0.040000
      32       6.303244       0.040000
      33       6.489080       0.040000
      34       6.553291       0.040000
      35       6.646709       0.040000
      36       6.829054       0.040000
      37       7.197714       0.040000
      38       7.209770       0.040000
      39       7.344075       0.040000
      40       7.381722       0.040000
      41       7.415871       0.040000
      42       7.504078       0.040000
      43       7.814874       0.040000
      44       7.825074       0.040000
      45       8.046164       0.040000

 28/31 kpoint (Cartesian) = 0.848528 0.489898 0.039365 (9920 pws)
       1       0.256049       0.040000
       2       0.278238       0.040000
       3       0.370663       0.040000
       4       0.392894       0.040000
       5       0.583157       0.040000
       6       0.651345       0.040000
       7       0.955294       0.040000
       8       0.994067       0.040000
       9       1.353969       0.040000
      10       1.501747       0.040000
      11       2.033392       0.040000
      12       2.040621       0.040000
      13       2.683549       0.040000
      14       2.803380       0.040000
      15       3.520334       0.040000
      16       3.557299       0.040000
      17       4.415991       0.040000
      18       4.462064       0.040000
      19       5.221302       0.040000
      20       5.262035       0.040000
      21       5.305103       0.040000
      22       5.337332       0.040000
      23       5.472538       0.040000
      24       5.479776       0.040000
      25       5.635605       0.040000
      26       5.713800       0.040000
      27       5.998300       0.040000
      28       6.024967       0.040000
      29       6.262914       0.040000
      30       6.419697       0.040000
      31       6.793452       0.040000
      32       6.838816       0.040000
      33       7.227328       0.040000
      34       7.263836       0.040000
      35       7.766630       0.040000
      36       7.856464       0.040000
      37       8.159716       0.039941
      38       8.161239       0.039937
      39       8.632815       0.000005
      40       8.704671       0.000000
      41       9.435533       0.000000
      42       9.456811       0.000000
      43       9.542770       0.000000
      44       9.617838       0.000000
      45      10.615870       0.000000

 29/31 kpoint (Cartesian) = 0.848528 0.326599 0.039365 (9910 pws)
       1       1.512777       0.080000
       2       1.534730       0.080000
       3       1.627110       0.080000
       4       1.648860       0.080000
       5       1.838182       0.080000
       6       1.905762       0.080000
       7       2.207986       0.080000
       8       2.246842       0.080000
       9       2.604134       0.080000
      10       2.749614       0.080000
      11       3.275680       0.080000
      12       3.277852       0.080000
      13       3.898274       0.080000
      14       4.004162       0.080000
      15       4.018055       0.080000
      16       4.055855       0.080000
      17       4.135147       0.080000
      18       4.151911       0.080000
      19       4.337609       0.080000
      20       4.399668       0.080000
      21       4.630108       0.080000
      22       4.646268       0.080000
      23       4.823686       0.080000
      24       4.831328       0.080000
      25       5.122993       0.080000
      26       5.239598       0.080000
      27       5.614407       0.080000
      28       5.630306       0.080000
      29       5.892187       0.080000
      30       5.894025       0.080000
      31       6.493535       0.080000
      32       6.535401       0.080000
      33       6.960456       0.080000
      34       7.037927       0.080000
      35       7.407713       0.080000
      36       7.418568       0.080000
      37       8.037063       0.080000
      38       8.060159       0.080000
      39       8.322951       0.060188
      40       8.391099       0.031322
      41       9.264380       0.000000
      42       9.273162       0.000000
      43       9.350647       0.000000
      44       9.377866       0.000000
      45      10.483622       0.000000

 30/31 kpoint (Cartesian) = 0.565685 0.653197 0.039365 (9906 pws)
       1       3.227274       0.040000
       2       3.240912       0.040000
       3       3.305010       0.040000
       4       3.327808       0.040000
       5       3.356446       0.040000
       6       3.358644       0.040000
       7       3.413316       0.040000
       8       3.450346       0.040000
       9       3.555155       0.040000
      10       3.600955       0.040000
      11       3.630742       0.040000
      12       3.721095       0.040000
      13       3.912078       0.040000
      14       3.944345       0.040000
      15       3.992115       0.040000
      16       4.053444       0.040000
      17       4.340687       0.040000
      18       4.357237       0.040000
      19       4.386825       0.040000
      20       4.570176       0.040000
      21       4.838908       0.040000
      22       4.945846       0.040000
      23       5.069892       0.040000
      24       5.211954       0.040000
      25       5.515598       0.040000
      26       5.665637       0.040000
      27       5.866574       0.040000
      28       5.874488       0.040000
      29       6.302509       0.040000
      30       6.381017       0.040000
      31       6.779018       0.040000
      32       6.811403       0.040000
      33       7.461960       0.040000
      34       7.484769       0.040000
      35       7.629495       0.040000
      36       7.720383       0.040000
      37       8.218116       0.039376
      38       8.225147       0.039204
      39       8.308880       0.032418
      40       8.361116       0.022319
      41       8.437249       0.007114
      42       8.437889       0.007021
      43       8.513135       0.000933
      44       8.573161       0.000092
      45       8.723290       0.000000

 31/31 kpoint (Cartesian) = 0.707107 0.408248 0.039365 (9940 pws)
       1       2.475693       0.020000
       2       2.489412       0.020000
       3       2.550586       0.020000
       4       2.574520       0.020000
       5       2.605121       0.020000
       6       2.605752       0.020000
       7       2.659654       0.020000
       8       2.696214       0.020000
       9       2.804055       0.020000
      10       2.850264       0.020000
      11       2.876765       0.020000
      12       2.967047       0.020000
      13       3.162345       0.020000
      14       3.194112       0.020000
      15       3.238774       0.020000
      16       3.299941       0.020000
      17       3.590057       0.020000
      18       3.607021       0.020000
      19       3.639031       0.020000
      20       3.818269       0.020000
      21       4.092125       0.020000
      22       4.196656       0.020000
      23       4.323891       0.020000
      24       4.466107       0.020000
      25       4.777187       0.020000
      26       4.920684       0.020000
      27       5.128515       0.020000
      28       5.130190       0.020000
      29       5.570230       0.020000
      30       5.647129       0.020000
      31       6.053752       0.020000
      32       6.089340       0.020000
      33       6.766754       0.020000
      34       6.794670       0.020000
      35       6.914657       0.020000
      36       7.017442       0.020000
      37       7.765927       0.020000
      38       7.872144       0.020000
      39       7.916793       0.020000
      40       8.038886       0.020000
      41       8.938432       0.000000
      42       8.990957       0.000000
      43       9.062758       0.000000
      44       9.110669       0.000000
      45      10.255826       0.000000




 ><><><><><><><><><><><><><><><><><><><><><><

    TOTAL-FORCE (eV/Angstrom)

 ><><><><><><><><><><><><><><><><><><><><><><

     atom              x              y              z
      Al1      -0.000275      -0.000159      -0.363874
      Al2      +0.001189      +0.000687      +0.428497
      Al3      +0.000093      +0.000054      -0.412189
      Al4      -0.001585      -0.000915      +0.305742
      Al5      -0.019119      -0.011039      -0.349054
      Al6      -0.046296      -0.026729      +0.370965
      Al7      +0.069397      +0.040067      -0.175581
      Al8      -0.009171      -0.005295      -0.085526
      Al9      +0.006485      +0.003744      +0.083253
     Al10      +0.001369      +0.000791      +0.077599
     Al11      -0.006914      -0.003992      +0.001899
     Al12      +0.001422      +0.000821      -0.063567
     Al13      +0.006555      +0.003785      -0.078858
     Al14      -0.009068      -0.005235      +0.090144
     Al15      +0.068674      +0.039649      +0.176978
     Al16      -0.045603      -0.026329      -0.383250
     Al17      -0.019131      -0.011046      +0.344665
     Al18      -0.001635      -0.000944      -0.323612
     Al19      +0.000114      +0.000066      +0.413622
     Al20      +0.001165      +0.000673      -0.431910
     Al21      -0.000303      -0.000175      +0.368304
     Al22      +0.002636      +0.001522      +0.005752


 ><><><><><><><><><><><><><><><><><><><><><><

 TOTAL-STRESS (KBAR)

 ><><><><><><><><><><><><><><><><><><><><><><

       -7.261900      -0.390378      +0.002381
       -0.390378      -6.811130      +0.001375
       +0.002381      +0.001375     +23.324613

 Ion relaxation is not converged yet (threshold is +0.000001)

 DIRECT COORDINATES
         atom                   x                   y                   z                 mag                  vx                  vy                  vz
     taud_Al1           +0.000000           +0.000000           +0.000130           +0.000000           +0.000000           +0.000000           +0.000000
     taud_Al2           +0.333333           +0.333333           +0.045302           +0.000000           +0.000000           +0.000000           +0.000000
     taud_Al3           +0.666667           +0.666667           +0.091050           +0.000000           +0.000000           +0.000000           +0.000000
     taud_Al4           +0.000000           +0.000000           +0.136232           +0.000000           +0.000000           +0.000000           +0.000000
     taud_Al5           +0.333333           +0.333333           +0.181875           +0.000000           +0.000000           +0.000000           +0.000000
     taud_Al6           +0.000000           +0.000000           +0.227103           +0.000000           +0.000000           +0.000000           +0.000000
     taud_Al7           +0.600000           +0.600000           +0.272833           +0.000000           +0.000000           +0.000000           +0.000000
     taud_Al8           +0.933333           +0.933333           +0.318287           +0.000000           +0.000000           +0.000000           +0.000000
     taud_Al9           +0.266667           +0.266667           +0.363598           +0.000000           +0.000000           +0.000000           +0.000000
    taud_Al10           +0.600000           +0.600000           +0.409010           +0.000000           +0.000000           +0.000000           +0.000000
    taud_Al11           +0.933333           +0.933333           +0.454543           +0.000000           +0.000000           +0.000000           +0.000000
    taud_Al12           +0.600000           +0.600000           +0.500074           +0.000000           +0.000000           +0.000000           +0.000000
    taud_Al13           +0.266667           +0.266667           +0.545493           +0.000000           +0.000000           +0.000000           +0.000000
    taud_Al14           +0.933333           +0.933333           +0.590809           +0.000000           +0.000000           +0.000000           +0.000000
    taud_Al15           +0.600000           +0.600000           +0.636270           +0.000000           +0.000000           +0.000000           +0.000000
    taud_Al16           +0.000000           +0.000000           +0.682009           +0.000000           +0.000000           +0.000000           +0.000000
    taud_Al17           +0.333333           +0.333333           +0.727234           +0.000000           +0.000000           +0.000000           +0.000000
    taud_Al18           +0.000000           +0.000000           +0.772874           +0.000000           +0.000000           +0.000000           +0.000000
    taud_Al19           +0.666667           +0.666667           +0.818041           +0.000000           +0.000000           +0.000000           +0.000000
    taud_Al20           +0.333333           +0.333333           +0.863772           +0.000000           +0.000000           +0.000000           +0.000000
    taud_Al21           +0.000000           +0.000000           +0.908933           +0.000000           +0.000000           +0.000000           +0.000000
    taud_Al22           +0.666667           +0.666667           +0.954527           +0.000000           +0.000000           +0.000000           +0.000000

 Setup the structure factor in plane wave basis.
 Setup the extrapolated charge.
 Setup the structure factor in plane wave basis.
 Setup the Vl+Vh+Vxc according to new structure factor and new charge.
 Setup the new wave functions?

 -------------------------------------------
 RELAX CELL : 1
 RELAX IONS : 4 (in total: 4)
 -------------------------------------------

 PW ALGORITHM --------------- ION=  +4  ELEC=  +1--------------------------------
  K-point    CG iter num      Time(Sec)
       +1     +48.800000    +157.634733
       +2     +49.111111    +157.295236
       +3     +49.466667    +144.225589
       +4     +50.933333    +139.946940
       +5     +52.533333    +167.274642
       +6     +56.088889    +160.755378
       +7     +47.333333    +128.279954
       +8     +50.066667    +140.072546
       +9     +51.600000    +154.156854
      +10     +53.088889    +170.543316
      +11     +56.466667    +165.798102
      +12     +56.577778    +176.376065
      +13     +54.222222    +154.117705
      +14     +52.355556    +154.422555
      +15     +50.200000    +164.599653
      +16     +49.355556    +145.773690
      +17     +52.000000    +159.648590
      +18     +56.377778    +165.190737
      +19     +56.800000    +160.177606
      +20     +60.977778    +186.395589
      +21     +55.955556    +152.510868
      +22     +54.911111    +163.075192
      +23     +52.266667    +161.867017
      +24     +52.400000    +163.389365
      +25     +58.866667    +183.994261
      +26     +60.155556    +168.084428
      +27     +58.644444    +175.702772
      +28     +53.888889    +156.273760
      +29     +55.311111    +174.869651
