 *********************************************************
 *                                                       *
 *                  WELCOME TO ABACUS v3.0               *
 *                                                       *
 *            'Atomic-orbital Based Ab-initio            *
 *                  Computation at UStc'                 *
 *                                                       *
 *          Website: http://abacus.ustc.edu.cn/          *
 *                                                       *
 *********************************************************
 Wed Apr 26 05:32:37 2023
 MAKE THE DIR         : OUT.oftest/
Notice: symbol 'mg_locpsp' is not an element symbol!!!! set the covalent radius to be 0.
 UNIFORM GRID DIM     : 45 * 45 * 45
 UNIFORM GRID DIM(BIG): 45 * 45 * 45
func,idXC_GGA_X_PBE 101
func,idXC_GGA_C_PBE 130
 DONE(0.286107   SEC) : SETUP UNITCELL
 DONE(0.340061   SEC) : SYMMETRY
 DONE(0.340329   SEC) : INIT K-POINTS
 ---------------------------------------------------------
 Self-consistent calculations for electrons
 ---------------------------------------------------------
 SPIN    KPOINTS         PROCESSORS  
 1       1               1           
 ---------------------------------------------------------
 Use plane wave basis
 ---------------------------------------------------------
 ELEMENT NATOM       XC          
 Mg      1           
 ---------------------------------------------------------
 Initial plane wave basis and FFT box
 ---------------------------------------------------------
 DONE(0.344339   SEC) : INIT BASIS
 DONE(0.344369   SEC) : INIT PHI
 DONE(0.459996   SEC) : LOCAL POTENTIAL
 DONE(0.460036   SEC) : NON-LOCAL POTENTIAL
 START CHARGE      : atomic
 DONE(0.768922   SEC) : INIT POTENTIAL
 DONE(0.769484   SEC) : INIT OPTIMIZATION
Default type: double
nnode = 10
nlayer = 3
feg_net_F = 0.540933
 DONE(0.82177    SEC) : INIT KEDF
======================== Running OFDFT ========================
Iter        Etot(Ha)          Theta      PotNorm     deltaE(Ha)
0     -8.518267605702e-01   2.000e-01   8.898e-02   -8.518e-01  
1     -8.847992634837e-01   8.280e-02   5.509e-02   -3.297e-02  
2     -8.854191703893e-01   7.207e-03   1.399e-02   -6.199e-04  
3     -8.854771583320e-01   2.370e-03   1.537e-02   -5.799e-05  
4     -8.855934959696e-01   7.749e-03   1.114e-03   -1.163e-04  
5     -8.855939019596e-01   1.713e-04   1.148e-03   -4.060e-07  
6     -8.855943659094e-01   3.381e-04   9.145e-04   -4.639e-07  

  |CLASS_NAME---------|NAME---------------|TIME(Sec)-----|CALLS----|AVG------|PER%-------
                       total               627.35         21        30        1e+02     %
   Driver              driver_line         627.34         1         6.3e+02   1e+02     %
   PW_Basis            setuptransform      0.24452        1         0.24      0.039     %
   ppcell_vl           init_vloc           0.11549        1         0.12      0.018     %
   Charge              atomic_rho          0.1276         1         0.13      0.02      %
   PW_Basis            recip2real          13.526         3148      0.0043    2.2       %
   PW_Basis            gathers_scatterp    1.0525         3148      0.00033   0.17      %
   Potential           init_pot            0.17576        1         0.18      0.028     %
   Potential           update_from_charge  19.106         158       0.12      3         %
   Potential           cal_v_eff           19.099         158       0.12      3         %
   H_Hartree_pw        v_hartree           1.592          158       0.01      0.25      %
   PW_Basis            real2recip          13.696         3148      0.0044    2.2       %
   PW_Basis            gatherp_scatters    0.68904        3148      0.00022   0.11      %
   PotXC               cal_v_eff           17.448         158       0.11      2.8       %
   XC_Functional       v_xc                312.07         79        4         50        %
   XC_Functional       v_xc_libxc          17.423         158       0.11      2.8       %
   ESolver_OF          Run                 626.53         1         6.3e+02   1e+02     %
   KEDF_vW             vw_potential        1.5318         157       0.0098    0.24      %
 ----------------------------------------------------------------------------------------

 START  Time  : Wed Apr 26 05:32:37 2023
 FINISH Time  : Wed Apr 26 05:43:04 2023
 TOTAL  Time  : 6.3e+02
 SEE INFORMATION IN : OUT.oftest/
