 *********************************************************
 *                                                       *
 *                  WELCOME TO ABACUS v3.0               *
 *                                                       *
 *            'Atomic-orbital Based Ab-initio            *
 *                  Computation at UStc'                 *
 *                                                       *
 *          Website: http://abacus.ustc.edu.cn/          *
 *                                                       *
 *********************************************************
 Wed Apr 26 05:32:37 2023
 MAKE THE DIR         : OUT.oftest/
Notice: symbol 'mg_locpsp' is not an element symbol!!!! set the covalent radius to be 0.
 UNIFORM GRID DIM     : 27 * 27 * 45
 UNIFORM GRID DIM(BIG): 27 * 27 * 45
func,idXC_GGA_X_PBE 101
func,idXC_GGA_C_PBE 130
 DONE(0.14307    SEC) : SETUP UNITCELL
 DONE(0.199815   SEC) : SYMMETRY
 DONE(0.200052   SEC) : INIT K-POINTS
 ---------------------------------------------------------
 Self-consistent calculations for electrons
 ---------------------------------------------------------
 SPIN    KPOINTS         PROCESSORS  
 1       1               1           
 ---------------------------------------------------------
 Use plane wave basis
 ---------------------------------------------------------
 ELEMENT NATOM       XC          
 Mg      2           
 ---------------------------------------------------------
 Initial plane wave basis and FFT box
 ---------------------------------------------------------
 DONE(0.205577   SEC) : INIT BASIS
 DONE(0.205606   SEC) : INIT PHI
 DONE(0.396263   SEC) : LOCAL POTENTIAL
 DONE(0.396301   SEC) : NON-LOCAL POTENTIAL
 START CHARGE      : atomic
 DONE(0.658872   SEC) : INIT POTENTIAL
 DONE(0.659004   SEC) : INIT OPTIMIZATION
Default type: double
nnode = 10
nlayer = 3
feg_net_F = 0.540933
 DONE(0.705716   SEC) : INIT KEDF
======================== Running OFDFT ========================
Iter        Etot(Ha)          Theta      PotNorm     deltaE(Ha)
0     -1.610669631605e+00   2.000e-01   1.588e-01   -1.611e+00  
1     -1.753989555333e+00   1.459e-01   1.161e-01   -1.433e-01  
2     -1.758573290135e+00   1.467e-02   1.333e-02   -4.584e-03  
3     -1.758600626613e+00   7.439e-04   1.459e-02   -2.734e-05  
4     -1.758635940262e+00   8.328e-04   1.409e-02   -3.531e-05  
5     -1.758681574360e+00   2.728e-03   1.481e-03   -4.563e-05  
6     -1.758682385425e+00   2.475e-04   7.494e-04   -8.111e-07  
7     -1.758682553358e+00   7.738e-05   3.218e-04   -1.679e-07  

  |CLASS_NAME---------|NAME---------------|TIME(Sec)-----|CALLS----|AVG------|PER%-------
                       total               265.65         21        13        1e+02     %
   Driver              driver_line         265.64         1         2.7e+02   1e+02     %
   PW_Basis            setuptransform      0.11669        1         0.12      0.044     %
   ppcell_vl           init_vloc           0.1905         1         0.19      0.072     %
   Charge              atomic_rho          0.21033        1         0.21      0.079     %
   PW_Basis            recip2real          6.5544         3768      0.0017    2.5       %
   PW_Basis            gathers_scatterp    0.453          3768      0.00012   0.17      %
   Potential           update_from_charge  9.0103         189       0.048     3.4       %
   Potential           cal_v_eff           9.0076         189       0.048     3.4       %
   H_Hartree_pw        v_hartree           0.76961        189       0.0041    0.29      %
   PW_Basis            real2recip          6.8331         3768      0.0018    2.6       %
   PW_Basis            gatherp_scatters    0.26712        3768      7.1e-05   0.1       %
   PotXC               cal_v_eff           8.2133         189       0.043     3.1       %
   XC_Functional       v_xc                131.32         95        1.4       49        %
   XC_Functional       v_xc_libxc          8.2011         189       0.043     3.1       %
   ESolver_OF          Run                 264.94         1         2.6e+02   1e+02     %
   KEDF_vW             vw_potential        0.75747        188       0.004     0.29      %
 ----------------------------------------------------------------------------------------

 START  Time  : Wed Apr 26 05:32:37 2023
 FINISH Time  : Wed Apr 26 05:37:02 2023
 TOTAL  Time  : 2.6e+02
 SEE INFORMATION IN : OUT.oftest/
