                                                                                     
                             WELCOME TO ABACUS v3.0                                  
                                                                                     
               'Atomic-orbital Based Ab-initio Computation at UStc'                  
                                                                                     
                     Website: http://abacus.ustc.edu.cn/                             
                                                                                     
    Version: Parallel, in development
    Processor Number is 1
    Start Time is Mon Mar  6 13:47:53 2023
                                                                                     
 ------------------------------------------------------------------------------------

 READING GENERAL INFORMATION
                           global_out_dir = OUT.blpstest/
                           global_in_card = INPUT
                               pseudo_dir = 
                              orbital_dir = 
                                    DRANK = 1
                                    DSIZE = 1
                                   DCOLOR = 1
                                    GRANK = 1
                                    GSIZE = 1
 The esolver type has been set to : ksdft_pw




 >>>>>>>>>>>>>>>>>>>>>>>>>>>>>>>>>>>>>>>>>>>>>>>>>>>>>>>>>>>>>>>>>>>>>>
 |                                                                    |
 | Reading atom information in unitcell:                              |
 | From the input file and the structure file we know the number of   |
 | different elments in this unitcell, then we list the detail        |
 | information for each element, especially the zeta and polar atomic |
 | orbital number for each element. The total atom number is counted. |
 | We calculate the nearest atom distance for each atom and show the  |
 | Cartesian and Direct coordinates for each atom. We list the file   |
 | address for atomic orbitals. The volume and the lattice vectors    |
 | in real and reciprocal space is also shown.                        |
 |                                                                    |
 <<<<<<<<<<<<<<<<<<<<<<<<<<<<<<<<<<<<<<<<<<<<<<<<<<<<<<<<<<<<<<<<<<<<<<




 READING UNITCELL INFORMATION
                                    ntype = 2
                 atom label for species 1 = Li
                 atom label for species 2 = Al
                  lattice constant (Bohr) = 7.55104
              lattice constant (Angstrom) = 3.99584

 READING ATOM TYPE 1
                               atom label = Li
                      L=0, number of zeta = 1
                      L=1, number of zeta = 1
                      L=2, number of zeta = 1
             number of atom for this type = 1
                      start magnetization = FALSE

 READING ATOM TYPE 2
                               atom label = Al
                      L=0, number of zeta = 1
                      L=1, number of zeta = 1
                      L=2, number of zeta = 1
             number of atom for this type = 3
                      start magnetization = FALSE
                      start magnetization = FALSE
                      start magnetization = FALSE

                        TOTAL ATOM NUMBER = 4

 DIRECT COORDINATES
         atom                   x                   y                   z                 mag                  vx                  vy                  vz
     taud_Li1                   0                   0                   0                   0                   0                   0                   0
     taud_Al1                   0                 0.5                 0.5                   0                   0                   0                   0
     taud_Al2                 0.5                   0                 0.5                   0                   0                   0                   0
     taud_Al3                 0.5                 0.5                   0                   0                   0                   0                   0


                          Volume (Bohr^3) = 430.546
                             Volume (A^3) = 63.8003

 Lattice vectors: (Cartesian coordinate: in unit of a_0)
                   +1                  +0                  +0
                   +0                  +1                  +0
                   +0                  +0                  +1
 Reciprocal vectors: (Cartesian coordinate: in unit of 2 pi/a_0)
                   +1                  -0                  +0
                   -0                  +1                  -0
                   +0                  -0                  +1




 >>>>>>>>>>>>>>>>>>>>>>>>>>>>>>>>>>>>>>>>>>>>>>>>>>>>>>>>>>>>>>>>>>>>>>
 |                                                                    |
 | Reading pseudopotentials files:                                    |
 | The pseudopotential file is in UPF format. The 'NC' indicates that |
 | the type of pseudopotential is 'norm conserving'. Functional of    |
 | exchange and correlation is decided by 4 given parameters in UPF   |
 | file.  We also read in the 'core correction' if there exists.      |
 | Also we can read the valence electrons number and the maximal      |
 | angular momentum used in this pseudopotential. We also read in the |
 | trail wave function, trail atomic density and local-pseudopotential|
 | on logrithmic grid. The non-local pseudopotential projector is also|
 | read in if there is any.                                           |
 |                                                                    |
 <<<<<<<<<<<<<<<<<<<<<<<<<<<<<<<<<<<<<<<<<<<<<<<<<<<<<<<<<<<<<<<<<<<<<<




                PAO radial cut off (Bohr) = 16

 Read in pseudopotential file is li.gga.psp.1
                     pseudopotential type = 
          exchange-correlation functional = XC_GGA_X_PBE+XC_GGA_C_PBE
                 nonlocal core correction = 0
                        valence electrons = 1
                                     lmax = 0
                           number of zeta = 0
                     number of projectors = 0
                PAO radial cut off (Bohr) = 16

 Read in pseudopotential file is al.gga.psp
                     pseudopotential type = 
          exchange-correlation functional = XC_GGA_X_PBE+XC_GGA_C_PBE
                 nonlocal core correction = 0
                        valence electrons = 3
                                     lmax = 0
                           number of zeta = 0
                     number of projectors = 0
Notice: symbol 'Li_locpsp' is not an element symbol!!!! set the covalent radius to be 0.
Notice: symbol 'al_locpsp' is not an element symbol!!!! set the covalent radius to be 0.
     initial pseudo atomic orbital number = 0
                                   NLOCAL = 36




 >>>>>>>>>>>>>>>>>>>>>>>>>>>>>>>>>>>>>>>>>>>>>>>>>>>>>>>>>>>>>>>>>>>>>>
 |                                                                    |
 | Setup plane waves of charge/potential:                             |
 | Use the energy cutoff and the lattice vectors to generate the      |
 | dimensions of FFT grid. The number of FFT grid on each processor   |
 | is 'nrxx'. The number of plane wave basis in reciprocal space is   |
 | different for charege/potential and wave functions. We also set    |
 | the 'sticks' for the parallel of FFT. The number of plane waves    |
 | is 'npw' in each processor.                                        |
 <<<<<<<<<<<<<<<<<<<<<<<<<<<<<<<<<<<<<<<<<<<<<<<<<<<<<<<<<<<<<<<<<<<<<<





 SETUP THE PLANE WAVE BASIS
 energy cutoff for charge/potential (unit:Ry) = 180
          [fft grid for charge/potential] = 36, 36, 36
                      [fft grid division] = 1, 1, 1
      [big fft grid for charge/potential] = 36, 36, 36
                                     nbxx = 46656
                                     nrxx = 46656

 SETUP PLANE WAVES FOR CHARGE/POTENTIAL
                    number of plane waves = 17461
                         number of sticks = 805

 PARALLEL PW FOR CHARGE/POTENTIAL
     PROC   COLUMNS(POT)             PW
        1            805          17461
 --------------- sum -------------------
        1            805          17461
                            number of |g| = 218
                                  max |g| = 259
                                  min |g| = 0

 SETUP THE ELECTRONS NUMBER
            electron number of element Li = 1
      total electron number of element Li = 1
            electron number of element Al = 3
      total electron number of element Al = 9
            AUTOSET number of electrons:  = 10
 DONE : SETUP UNITCELL Time : 0.190503 (SEC)





 >>>>>>>>>>>>>>>>>>>>>>>>>>>>>>>>>>>>>>>>>>>>>>>>>>>>>>>>>>>>>>>>>>>>>>
 |                                                                    |
 | Doing symmetry analysis:                                           |
 | We calculate the norm of 3 vectors and the angles between them,    |
 | the type of Bravais lattice is given. We can judge if the unticell |
 | is a primitive cell. Finally we give the point group operation for |
 | this unitcell. We we use the point group operations to do symmetry |
 | analysis on given k-point mesh and the charge density.             |
 |                                                                    |
 <<<<<<<<<<<<<<<<<<<<<<<<<<<<<<<<<<<<<<<<<<<<<<<<<<<<<<<<<<<<<<<<<<<<<<




 LATTICE VECTORS: (CARTESIAN COORDINATE: IN UNIT OF A0)
                   +1                  +0                  +0
                   +0                  +1                  +0
                   +0                  +0                  +1
                       right hand lattice = 1
                                   NORM_A = 1
                                   NORM_B = 1
                                   NORM_C = 1
                           ALPHA (DEGREE) = 90
                           BETA  (DEGREE) = 90
                           GAMMA (DEGREE) = 90
                             BRAVAIS TYPE = 1
                     BRAVAIS LATTICE NAME = 01. Cubic P (simple)
                                    IBRAV = 1
                                  BRAVAIS = SIMPLE CUBIC
                       LATTICE CONSTANT A = 1
                                    ibrav = 1
                        ROTATION MATRICES = 48
              PURE POINT GROUP OPERATIONS = 48
                   SPACE GROUP OPERATIONS = 48
                              POINT GROUP = O_h
Warning : If the optimal symmetric configuration is not the input configuration, 
you have to manually change configurations, ABACUS would only calculate the input structure.
 DONE : SYMMETRY Time : 0.22194 (SEC)





 >>>>>>>>>>>>>>>>>>>>>>>>>>>>>>>>>>>>>>>>>>>>>>>>>>>>>>>>>>>>>>>>>>>>>>
 |                                                                    |
 | Setup K-points                                                     |
 | We setup the k-points according to input parameters.               |
 | The reduced k-points are set according to symmetry operations.     |
 | We treat the spin as another set of k-points.                      |
 |                                                                    |
 <<<<<<<<<<<<<<<<<<<<<<<<<<<<<<<<<<<<<<<<<<<<<<<<<<<<<<<<<<<<<<<<<<<<<<





 SETUP K-POINTS
                                    nspin = 1
                   Input type of k points = Monkhorst-Pack(Gamma)
                                   nkstot = 8000
                               nkstot_ibz = 286
      IBZ             DirectX             DirectY             DirectZ              Weight    ibz2bz
        1                   0                   0                   0            0.000125         0
        2                0.95                   0                   0             0.00075         1
        3                 0.9                   0                   0             0.00075         2
        4                0.85                   0                   0             0.00075         3
        5                 0.8                   0                   0             0.00075         4
        6                0.75                   0                   0             0.00075         5
        7                 0.7                   0                   0             0.00075         6
        8                0.65                   0                   0             0.00075         7
        9                 0.6                   0                   0             0.00075         8
       10                0.55                   0                   0             0.00075         9
       11                   0                   0                 0.5            0.000375        10
       12                0.95                0.95                   0              0.0015        21
       13                0.95                 0.9                   0               0.003        22
       14                0.95                0.85                   0               0.003        23
       15                0.95                 0.8                   0               0.003        24
       16                0.95                0.75                   0               0.003        25
       17                0.95                 0.7                   0               0.003        26
       18                0.95                0.65                   0               0.003        27
       19                0.95                 0.6                   0               0.003        28
       20                0.95                0.55                   0               0.003        29
       21                0.95                 0.5                   0              0.0015        30
       22                 0.9                 0.9                   0              0.0015        42
       23                 0.9                0.85                   0               0.003        43
       24                 0.9                 0.8                   0               0.003        44
       25                 0.9                0.75                   0               0.003        45
       26                 0.9                 0.7                   0               0.003        46
       27                 0.9                0.65                   0               0.003        47
       28                 0.9                 0.6                   0               0.003        48
       29                 0.9                0.55                   0               0.003        49
       30                 0.9                 0.5                   0              0.0015        50
       31                0.85                0.85                   0              0.0015        63
       32                0.85                 0.8                   0               0.003        64
       33                0.85                0.75                   0               0.003        65
       34                0.85                 0.7                   0               0.003        66
       35                0.85                0.65                   0               0.003        67
       36                0.85                 0.6                   0               0.003        68
       37                0.85                0.55                   0               0.003        69
       38                0.85                 0.5                   0              0.0015        70
       39                 0.8                 0.8                   0              0.0015        84
       40                 0.8                0.75                   0               0.003        85
       41                 0.8                 0.7                   0               0.003        86
       42                 0.8                0.65                   0               0.003        87
       43                 0.8                 0.6                   0               0.003        88
       44                 0.8                0.55                   0               0.003        89
       45                 0.8                 0.5                   0              0.0015        90
       46                0.75                0.75                   0              0.0015       105
       47                0.75                 0.7                   0               0.003       106
       48                0.75                0.65                   0               0.003       107
       49                0.75                 0.6                   0               0.003       108
       50                0.75                0.55                   0               0.003       109
       51                0.75                 0.5                   0              0.0015       110
       52                 0.7                 0.7                   0              0.0015       126
       53                 0.7                0.65                   0               0.003       127
       54                 0.7                 0.6                   0               0.003       128
       55                 0.7                0.55                   0               0.003       129
       56                 0.7                 0.5                   0              0.0015       130
       57                0.65                0.65                   0              0.0015       147
       58                0.65                 0.6                   0               0.003       148
       59                0.65                0.55                   0               0.003       149
       60                0.65                 0.5                   0              0.0015       150
       61                 0.6                 0.6                   0              0.0015       168
       62                 0.6                0.55                   0               0.003       169
       63                 0.6                 0.5                   0              0.0015       170
       64                0.55                0.55                   0              0.0015       189
       65                0.55                 0.5                   0              0.0015       190
       66                   0                 0.5                 0.5            0.000375       210
       67                0.95                0.95                0.95               0.001       421
       68                0.95                0.95                 0.9               0.003       422
       69                0.95                0.95                0.85               0.003       423
       70                0.95                0.95                 0.8               0.003       424
       71                0.95                0.95                0.75               0.003       425
       72                0.95                0.95                 0.7               0.003       426
       73                0.95                0.95                0.65               0.003       427
       74                0.95                0.95                 0.6               0.003       428
       75                0.95                0.95                0.55               0.003       429
       76                0.95                0.95                 0.5              0.0015       430
       77                0.95                 0.9                 0.9               0.003       442
       78                0.95                0.85                 0.9               0.006       443
       79                0.95                 0.9                 0.8               0.006       444
       80                0.95                 0.9                0.75               0.006       445
       81                 0.9                 0.7                0.95               0.006       446
       82                 0.9                0.65                0.95               0.006       447
       83                0.95                 0.9                 0.6               0.006       448
       84                0.95                 0.9                0.55               0.006       449
       85                0.95                 0.9                 0.5               0.003       450
       86                0.95                0.85                0.85               0.003       463
       87                0.95                0.85                 0.8               0.006       464
       88                0.95                0.85                0.75               0.006       465
       89                0.95                0.85                 0.7               0.006       466
       90                0.95                0.85                0.65               0.006       467
       91                0.95                0.85                 0.6               0.006       468
       92                0.95                0.85                0.55               0.006       469
       93                0.95                0.85                 0.5               0.003       470
       94                0.95                 0.8                 0.8               0.003       484
       95                0.95                 0.8                0.75               0.006       485
       96                 0.8                 0.7                0.95               0.006       486
       97                 0.8                0.65                0.95               0.006       487
       98                0.95                 0.6                 0.8               0.006       488
       99                0.95                0.55                 0.8               0.006       489
      100                0.95                 0.8                 0.5               0.003       490
      101                0.95                0.75                0.75               0.003       505
      102                0.75                 0.7                0.95               0.006       506
      103                0.75                0.65                0.95               0.006       507
      104                0.95                 0.6                0.75               0.006       508
      105                0.95                0.55                0.75               0.006       509
      106                0.95                0.75                 0.5               0.003       510
      107                0.95                 0.7                 0.7               0.003       526
      108                0.95                 0.7                0.65               0.006       527
      109                0.95                 0.7                 0.6               0.006       528
      110                0.95                0.55                 0.7               0.006       529
      111                 0.7                 0.5                0.95               0.003       530
      112                0.95                0.65                0.65               0.003       547
      113                0.95                0.65                 0.6               0.006       548
      114                0.95                0.55                0.65               0.006       549
      115                0.65                 0.5                0.95               0.003       550
      116                0.95                 0.6                 0.6               0.003       568
      117                0.95                 0.6                0.55               0.006       569
      118                0.95                 0.6                 0.5               0.003       570
      119                0.95                0.55                0.55               0.003       589
      120                0.95                0.55                 0.5               0.003       590
      121                0.95                 0.5                 0.5             0.00075       610
      122                 0.9                 0.9                 0.9               0.001       842
      123                 0.9                 0.9                0.85               0.003       843
      124                 0.9                 0.9                 0.8               0.003       844
      125                 0.9                 0.9                0.75               0.003       845
      126                 0.9                 0.7                 0.9               0.003       846
      127                 0.9                0.65                 0.9               0.003       847
      128                 0.9                 0.9                 0.6               0.003       848
      129                 0.9                 0.9                0.55               0.003       849
      130                 0.9                 0.9                 0.5              0.0015       850
      131                 0.9                0.85                0.85               0.003       863
      132                 0.9                0.85                 0.8               0.006       864
      133                 0.9                0.85                0.75               0.006       865
      134                 0.9                0.85                 0.7               0.006       866
      135                 0.9                0.85                0.65               0.006       867
      136                 0.9                0.85                 0.6               0.006       868
      137                 0.9                0.85                0.55               0.006       869
      138                 0.9                0.85                 0.5               0.003       870
      139                 0.9                 0.8                 0.8               0.003       884
      140                 0.9                 0.8                0.75               0.006       885
      141                 0.9                 0.8                 0.7               0.006       886
      142                 0.9                 0.8                0.65               0.006       887
      143                 0.9                 0.8                 0.6               0.006       888
      144                 0.9                 0.8                0.55               0.006       889
      145                 0.9                 0.8                 0.5               0.003       890
      146                 0.9                0.75                0.75               0.003       905
      147                 0.9                0.75                 0.7               0.006       906
      148                 0.9                0.75                0.65               0.006       907
      149                 0.9                0.75                 0.6               0.006       908
      150                 0.9                0.75                0.55               0.006       909
      151                 0.9                0.75                 0.5               0.003       910
      152                 0.9                 0.7                 0.7               0.003       926
      153                 0.9                 0.7                0.65               0.006       927
      154                 0.9                 0.7                 0.6               0.006       928
      155                 0.9                 0.7                0.55               0.006       929
      156                 0.9                 0.7                 0.5               0.003       930
      157                 0.9                0.65                0.65               0.003       947
      158                 0.9                0.65                 0.6               0.006       948
      159                 0.9                0.65                0.55               0.006       949
      160                 0.9                0.65                 0.5               0.003       950
      161                 0.6                 0.6                 0.9               0.003       968
      162                 0.9                0.55                 0.6               0.006       969
      163                 0.9                 0.6                 0.5               0.003       970
      164                 0.9                0.55                0.55               0.003       989
      165                 0.9                0.55                 0.5               0.003       990
      166                 0.9                 0.5                 0.5             0.00075      1010
      167                0.85                0.85                0.85               0.001      1263
      168                0.85                0.85                 0.8               0.003      1264
      169                0.85                0.85                0.75               0.003      1265
      170                0.85                0.85                 0.7               0.003      1266
      171                0.85                0.85                0.65               0.003      1267
      172                0.85                 0.6                0.85               0.003      1268
      173                0.85                0.85                0.55               0.003      1269
      174                0.85                0.85                 0.5              0.0015      1270
      175                0.85                 0.8                 0.8               0.003      1284
      176                0.85                 0.8                0.75               0.006      1285
      177                0.85                 0.8                 0.7               0.006      1286
      178                0.85                 0.8                0.65               0.006      1287
      179                0.85                 0.8                 0.6               0.006      1288
      180                0.85                 0.8                0.55               0.006      1289
      181                0.85                 0.8                 0.5               0.003      1290
      182                0.85                0.75                0.75               0.003      1305
      183                0.85                0.75                 0.7               0.006      1306
      184                0.85                0.75                0.65               0.006      1307
      185                0.85                0.75                 0.6               0.006      1308
      186                0.85                0.75                0.55               0.006      1309
      187                0.85                0.75                 0.5               0.003      1310
      188                0.85                 0.7                 0.7               0.003      1326
      189                0.85                 0.7                0.65               0.006      1327
      190                0.85                 0.6                 0.7               0.006      1328
      191                0.85                 0.7                0.55               0.006      1329
      192                0.85                 0.7                 0.5               0.003      1330
      193                0.85                0.65                0.65               0.003      1347
      194                0.85                 0.6                0.65               0.006      1348
      195                0.85                0.65                0.55               0.006      1349
      196                0.85                0.65                 0.5               0.003      1350
      197                0.85                 0.6                 0.6               0.003      1368
      198                0.85                 0.6                0.55               0.006      1369
      199                0.85                 0.6                 0.5               0.003      1370
      200                0.55                0.55                0.85               0.003      1389
      201                0.85                0.55                 0.5               0.003      1390
      202                0.85                 0.5                 0.5             0.00075      1410
      203                 0.8                 0.8                 0.8               0.001      1684
      204                 0.8                 0.8                0.75               0.003      1685
      205                 0.8                 0.8                 0.7               0.003      1686
      206                 0.8                 0.8                0.65               0.003      1687
      207                 0.8                 0.8                 0.6               0.003      1688
      208                 0.8                 0.8                0.55               0.003      1689
      209                 0.8                 0.8                 0.5              0.0015      1690
      210                 0.8                0.75                0.75               0.003      1705
      211                 0.8                0.75                 0.7               0.006      1706
      212                 0.8                0.75                0.65               0.006      1707
      213                 0.8                0.75                 0.6               0.006      1708
      214                 0.8                0.75                0.55               0.006      1709
      215                 0.8                0.75                 0.5               0.003      1710
      216                 0.8                 0.7                 0.7               0.003      1726
      217                 0.8                 0.7                0.65               0.006      1727
      218                 0.8                 0.7                 0.6               0.006      1728
      219                 0.8                 0.7                0.55               0.006      1729
      220                 0.8                 0.7                 0.5               0.003      1730
      221                 0.8                0.65                0.65               0.003      1747
      222                 0.8                0.65                 0.6               0.006      1748
      223                 0.8                0.65                0.55               0.006      1749
      224                 0.8                0.65                 0.5               0.003      1750
      225                 0.6                 0.6                 0.8               0.003      1768
      226                 0.8                0.55                 0.6               0.006      1769
      227                 0.8                 0.6                 0.5               0.003      1770
      228                 0.8                0.55                0.55               0.003      1789
      229                 0.8                0.55                 0.5               0.003      1790
      230                 0.8                 0.5                 0.5             0.00075      1810
      231                0.75                0.75                0.75               0.001      2105
      232                0.75                0.75                 0.7               0.003      2106
      233                0.75                0.75                0.65               0.003      2107
      234                0.75                0.75                 0.6               0.003      2108
      235                0.75                0.75                0.55               0.003      2109
      236                0.75                0.75                 0.5              0.0015      2110
      237                0.75                 0.7                 0.7               0.003      2126
      238                0.75                 0.7                0.65               0.006      2127
      239                0.75                 0.7                 0.6               0.006      2128
      240                0.75                 0.7                0.55               0.006      2129
      241                0.75                 0.7                 0.5               0.003      2130
      242                0.75                0.65                0.65               0.003      2147
      243                0.75                0.65                 0.6               0.006      2148
      244                0.75                0.65                0.55               0.006      2149
      245                0.75                0.65                 0.5               0.003      2150
      246                0.75                 0.6                 0.6               0.003      2168
      247                0.75                 0.6                0.55               0.006      2169
      248                0.75                 0.6                 0.5               0.003      2170
      249                0.75                0.55                0.55               0.003      2189
      250                0.75                0.55                 0.5               0.003      2190
      251                0.75                 0.5                 0.5             0.00075      2210
      252                 0.7                 0.7                 0.7               0.001      2526
      253                 0.7                 0.7                0.65               0.003      2527
      254                 0.7                 0.7                 0.6               0.003      2528
      255                 0.7                 0.7                0.55               0.003      2529
      256                 0.7                 0.7                 0.5              0.0015      2530
      257                 0.7                0.65                0.65               0.003      2547
      258                 0.7                0.65                 0.6               0.006      2548
      259                 0.7                0.65                0.55               0.006      2549
      260                 0.7                0.65                 0.5               0.003      2550
      261                 0.7                 0.6                 0.6               0.003      2568
      262                 0.6                0.55                 0.7               0.006      2569
      263                 0.7                 0.5                 0.6               0.003      2570
      264                 0.7                0.55                0.55               0.003      2589
      265                 0.7                0.55                 0.5               0.003      2590
      266                 0.7                 0.5                 0.5             0.00075      2610
      267                0.65                0.65                0.65               0.001      2947
      268                0.65                0.65                 0.6               0.003      2948
      269                0.65                0.65                0.55               0.003      2949
      270                0.65                0.65                 0.5              0.0015      2950
      271                0.65                 0.6                 0.6               0.003      2968
      272                 0.6                0.55                0.65               0.006      2969
      273                0.65                 0.5                 0.6               0.003      2970
      274                0.65                0.55                0.55               0.003      2989
      275                0.65                0.55                 0.5               0.003      2990
      276                0.65                 0.5                 0.5             0.00075      3010
      277                 0.6                 0.6                 0.6               0.001      3368
      278                 0.6                 0.6                0.55               0.003      3369
      279                 0.6                 0.6                 0.5              0.0015      3370
      280                 0.6                0.55                0.55               0.003      3389
      281                 0.6                0.55                 0.5               0.003      3390
      282                 0.6                 0.5                 0.5             0.00075      3410
      283                0.55                0.55                0.55               0.001      3789
      284                0.55                0.55                 0.5              0.0015      3790
      285                0.55                 0.5                 0.5             0.00075      3810
      286                 0.5                 0.5                 0.5            0.000125      4210
                               nkstot now = 286

  KPOINTS            DIRECT_X            DIRECT_Y            DIRECT_Z              WEIGHT
        1                   0                   0                   0            0.000125
        2                0.95                   0                   0             0.00075
        3                 0.9                   0                   0             0.00075
        4                0.85                   0                   0             0.00075
        5                 0.8                   0                   0             0.00075
        6                0.75                   0                   0             0.00075
        7                 0.7                   0                   0             0.00075
        8                0.65                   0                   0             0.00075
        9                 0.6                   0                   0             0.00075
       10                0.55                   0                   0             0.00075
       11                   0                   0                 0.5            0.000375
       12                0.95                0.95                   0              0.0015
       13                0.95                 0.9                   0               0.003
       14                0.95                0.85                   0               0.003
       15                0.95                 0.8                   0               0.003
       16                0.95                0.75                   0               0.003
       17                0.95                 0.7                   0               0.003
       18                0.95                0.65                   0               0.003
       19                0.95                 0.6                   0               0.003
       20                0.95                0.55                   0               0.003
       21                0.95                 0.5                   0              0.0015
       22                 0.9                 0.9                   0              0.0015
       23                 0.9                0.85                   0               0.003
       24                 0.9                 0.8                   0               0.003
       25                 0.9                0.75                   0               0.003
       26                 0.9                 0.7                   0               0.003
       27                 0.9                0.65                   0               0.003
       28                 0.9                 0.6                   0               0.003
       29                 0.9                0.55                   0               0.003
       30                 0.9                 0.5                   0              0.0015
       31                0.85                0.85                   0              0.0015
       32                0.85                 0.8                   0               0.003
       33                0.85                0.75                   0               0.003
       34                0.85                 0.7                   0               0.003
       35                0.85                0.65                   0               0.003
       36                0.85                 0.6                   0               0.003
       37                0.85                0.55                   0               0.003
       38                0.85                 0.5                   0              0.0015
       39                 0.8                 0.8                   0              0.0015
       40                 0.8                0.75                   0               0.003
       41                 0.8                 0.7                   0               0.003
       42                 0.8                0.65                   0               0.003
       43                 0.8                 0.6                   0               0.003
       44                 0.8                0.55                   0               0.003
       45                 0.8                 0.5                   0              0.0015
       46                0.75                0.75                   0              0.0015
       47                0.75                 0.7                   0               0.003
       48                0.75                0.65                   0               0.003
       49                0.75                 0.6                   0               0.003
       50                0.75                0.55                   0               0.003
       51                0.75                 0.5                   0              0.0015
       52                 0.7                 0.7                   0              0.0015
       53                 0.7                0.65                   0               0.003
       54                 0.7                 0.6                   0               0.003
       55                 0.7                0.55                   0               0.003
       56                 0.7                 0.5                   0              0.0015
       57                0.65                0.65                   0              0.0015
       58                0.65                 0.6                   0               0.003
       59                0.65                0.55                   0               0.003
       60                0.65                 0.5                   0              0.0015
       61                 0.6                 0.6                   0              0.0015
       62                 0.6                0.55                   0               0.003
       63                 0.6                 0.5                   0              0.0015
       64                0.55                0.55                   0              0.0015
       65                0.55                 0.5                   0              0.0015
       66                   0                 0.5                 0.5            0.000375
       67                0.95                0.95                0.95               0.001
       68                0.95                0.95                 0.9               0.003
       69                0.95                0.95                0.85               0.003
       70                0.95                0.95                 0.8               0.003
       71                0.95                0.95                0.75               0.003
       72                0.95                0.95                 0.7               0.003
       73                0.95                0.95                0.65               0.003
       74                0.95                0.95                 0.6               0.003
       75                0.95                0.95                0.55               0.003
       76                0.95                0.95                 0.5              0.0015
       77                0.95                 0.9                 0.9               0.003
       78                0.95                0.85                 0.9               0.006
       79                0.95                 0.9                 0.8               0.006
       80                0.95                 0.9                0.75               0.006
       81                 0.9                 0.7                0.95               0.006
       82                 0.9                0.65                0.95               0.006
       83                0.95                 0.9                 0.6               0.006
       84                0.95                 0.9                0.55               0.006
       85                0.95                 0.9                 0.5               0.003
       86                0.95                0.85                0.85               0.003
       87                0.95                0.85                 0.8               0.006
       88                0.95                0.85                0.75               0.006
       89                0.95                0.85                 0.7               0.006
       90                0.95                0.85                0.65               0.006
       91                0.95                0.85                 0.6               0.006
       92                0.95                0.85                0.55               0.006
       93                0.95                0.85                 0.5               0.003
       94                0.95                 0.8                 0.8               0.003
       95                0.95                 0.8                0.75               0.006
       96                 0.8                 0.7                0.95               0.006
       97                 0.8                0.65                0.95               0.006
       98                0.95                 0.6                 0.8               0.006
       99                0.95                0.55                 0.8               0.006
      100                0.95                 0.8                 0.5               0.003
      101                0.95                0.75                0.75               0.003
      102                0.75                 0.7                0.95               0.006
      103                0.75                0.65                0.95               0.006
      104                0.95                 0.6                0.75               0.006
      105                0.95                0.55                0.75               0.006
      106                0.95                0.75                 0.5               0.003
      107                0.95                 0.7                 0.7               0.003
      108                0.95                 0.7                0.65               0.006
      109                0.95                 0.7                 0.6               0.006
      110                0.95                0.55                 0.7               0.006
      111                 0.7                 0.5                0.95               0.003
      112                0.95                0.65                0.65               0.003
      113                0.95                0.65                 0.6               0.006
      114                0.95                0.55                0.65               0.006
      115                0.65                 0.5                0.95               0.003
      116                0.95                 0.6                 0.6               0.003
      117                0.95                 0.6                0.55               0.006
      118                0.95                 0.6                 0.5               0.003
      119                0.95                0.55                0.55               0.003
      120                0.95                0.55                 0.5               0.003
      121                0.95                 0.5                 0.5             0.00075
      122                 0.9                 0.9                 0.9               0.001
      123                 0.9                 0.9                0.85               0.003
      124                 0.9                 0.9                 0.8               0.003
      125                 0.9                 0.9                0.75               0.003
      126                 0.9                 0.7                 0.9               0.003
      127                 0.9                0.65                 0.9               0.003
      128                 0.9                 0.9                 0.6               0.003
      129                 0.9                 0.9                0.55               0.003
      130                 0.9                 0.9                 0.5              0.0015
      131                 0.9                0.85                0.85               0.003
      132                 0.9                0.85                 0.8               0.006
      133                 0.9                0.85                0.75               0.006
      134                 0.9                0.85                 0.7               0.006
      135                 0.9                0.85                0.65               0.006
      136                 0.9                0.85                 0.6               0.006
      137                 0.9                0.85                0.55               0.006
      138                 0.9                0.85                 0.5               0.003
      139                 0.9                 0.8                 0.8               0.003
      140                 0.9                 0.8                0.75               0.006
      141                 0.9                 0.8                 0.7               0.006
      142                 0.9                 0.8                0.65               0.006
      143                 0.9                 0.8                 0.6               0.006
      144                 0.9                 0.8                0.55               0.006
      145                 0.9                 0.8                 0.5               0.003
      146                 0.9                0.75                0.75               0.003
      147                 0.9                0.75                 0.7               0.006
      148                 0.9                0.75                0.65               0.006
      149                 0.9                0.75                 0.6               0.006
      150                 0.9                0.75                0.55               0.006
      151                 0.9                0.75                 0.5               0.003
      152                 0.9                 0.7                 0.7               0.003
      153                 0.9                 0.7                0.65               0.006
      154                 0.9                 0.7                 0.6               0.006
      155                 0.9                 0.7                0.55               0.006
      156                 0.9                 0.7                 0.5               0.003
      157                 0.9                0.65                0.65               0.003
      158                 0.9                0.65                 0.6               0.006
      159                 0.9                0.65                0.55               0.006
      160                 0.9                0.65                 0.5               0.003
      161                 0.6                 0.6                 0.9               0.003
      162                 0.9                0.55                 0.6               0.006
      163                 0.9                 0.6                 0.5               0.003
      164                 0.9                0.55                0.55               0.003
      165                 0.9                0.55                 0.5               0.003
      166                 0.9                 0.5                 0.5             0.00075
      167                0.85                0.85                0.85               0.001
      168                0.85                0.85                 0.8               0.003
      169                0.85                0.85                0.75               0.003
      170                0.85                0.85                 0.7               0.003
      171                0.85                0.85                0.65               0.003
      172                0.85                 0.6                0.85               0.003
      173                0.85                0.85                0.55               0.003
      174                0.85                0.85                 0.5              0.0015
      175                0.85                 0.8                 0.8               0.003
      176                0.85                 0.8                0.75               0.006
      177                0.85                 0.8                 0.7               0.006
      178                0.85                 0.8                0.65               0.006
      179                0.85                 0.8                 0.6               0.006
      180                0.85                 0.8                0.55               0.006
      181                0.85                 0.8                 0.5               0.003
      182                0.85                0.75                0.75               0.003
      183                0.85                0.75                 0.7               0.006
      184                0.85                0.75                0.65               0.006
      185                0.85                0.75                 0.6               0.006
      186                0.85                0.75                0.55               0.006
      187                0.85                0.75                 0.5               0.003
      188                0.85                 0.7                 0.7               0.003
      189                0.85                 0.7                0.65               0.006
      190                0.85                 0.6                 0.7               0.006
      191                0.85                 0.7                0.55               0.006
      192                0.85                 0.7                 0.5               0.003
      193                0.85                0.65                0.65               0.003
      194                0.85                 0.6                0.65               0.006
      195                0.85                0.65                0.55               0.006
      196                0.85                0.65                 0.5               0.003
      197                0.85                 0.6                 0.6               0.003
      198                0.85                 0.6                0.55               0.006
      199                0.85                 0.6                 0.5               0.003
      200                0.55                0.55                0.85               0.003
      201                0.85                0.55                 0.5               0.003
      202                0.85                 0.5                 0.5             0.00075
      203                 0.8                 0.8                 0.8               0.001
      204                 0.8                 0.8                0.75               0.003
      205                 0.8                 0.8                 0.7               0.003
      206                 0.8                 0.8                0.65               0.003
      207                 0.8                 0.8                 0.6               0.003
      208                 0.8                 0.8                0.55               0.003
      209                 0.8                 0.8                 0.5              0.0015
      210                 0.8                0.75                0.75               0.003
      211                 0.8                0.75                 0.7               0.006
      212                 0.8                0.75                0.65               0.006
      213                 0.8                0.75                 0.6               0.006
      214                 0.8                0.75                0.55               0.006
      215                 0.8                0.75                 0.5               0.003
      216                 0.8                 0.7                 0.7               0.003
      217                 0.8                 0.7                0.65               0.006
      218                 0.8                 0.7                 0.6               0.006
      219                 0.8                 0.7                0.55               0.006
      220                 0.8                 0.7                 0.5               0.003
      221                 0.8                0.65                0.65               0.003
      222                 0.8                0.65                 0.6               0.006
      223                 0.8                0.65                0.55               0.006
      224                 0.8                0.65                 0.5               0.003
      225                 0.6                 0.6                 0.8               0.003
      226                 0.8                0.55                 0.6               0.006
      227                 0.8                 0.6                 0.5               0.003
      228                 0.8                0.55                0.55               0.003
      229                 0.8                0.55                 0.5               0.003
      230                 0.8                 0.5                 0.5             0.00075
      231                0.75                0.75                0.75               0.001
      232                0.75                0.75                 0.7               0.003
      233                0.75                0.75                0.65               0.003
      234                0.75                0.75                 0.6               0.003
      235                0.75                0.75                0.55               0.003
      236                0.75                0.75                 0.5              0.0015
      237                0.75                 0.7                 0.7               0.003
      238                0.75                 0.7                0.65               0.006
      239                0.75                 0.7                 0.6               0.006
      240                0.75                 0.7                0.55               0.006
      241                0.75                 0.7                 0.5               0.003
      242                0.75                0.65                0.65               0.003
      243                0.75                0.65                 0.6               0.006
      244                0.75                0.65                0.55               0.006
      245                0.75                0.65                 0.5               0.003
      246                0.75                 0.6                 0.6               0.003
      247                0.75                 0.6                0.55               0.006
      248                0.75                 0.6                 0.5               0.003
      249                0.75                0.55                0.55               0.003
      250                0.75                0.55                 0.5               0.003
      251                0.75                 0.5                 0.5             0.00075
      252                 0.7                 0.7                 0.7               0.001
      253                 0.7                 0.7                0.65               0.003
      254                 0.7                 0.7                 0.6               0.003
      255                 0.7                 0.7                0.55               0.003
      256                 0.7                 0.7                 0.5              0.0015
      257                 0.7                0.65                0.65               0.003
      258                 0.7                0.65                 0.6               0.006
      259                 0.7                0.65                0.55               0.006
      260                 0.7                0.65                 0.5               0.003
      261                 0.7                 0.6                 0.6               0.003
      262                 0.6                0.55                 0.7               0.006
      263                 0.7                 0.5                 0.6               0.003
      264                 0.7                0.55                0.55               0.003
      265                 0.7                0.55                 0.5               0.003
      266                 0.7                 0.5                 0.5             0.00075
      267                0.65                0.65                0.65               0.001
      268                0.65                0.65                 0.6               0.003
      269                0.65                0.65                0.55               0.003
      270                0.65                0.65                 0.5              0.0015
      271                0.65                 0.6                 0.6               0.003
      272                 0.6                0.55                0.65               0.006
      273                0.65                 0.5                 0.6               0.003
      274                0.65                0.55                0.55               0.003
      275                0.65                0.55                 0.5               0.003
      276                0.65                 0.5                 0.5             0.00075
      277                 0.6                 0.6                 0.6               0.001
      278                 0.6                 0.6                0.55               0.003
      279                 0.6                 0.6                 0.5              0.0015
      280                 0.6                0.55                0.55               0.003
      281                 0.6                0.55                 0.5               0.003
      282                 0.6                 0.5                 0.5             0.00075
      283                0.55                0.55                0.55               0.001
      284                0.55                0.55                 0.5              0.0015
      285                0.55                 0.5                 0.5             0.00075
      286                 0.5                 0.5                 0.5            0.000125

           k-point number in this process = 286
       minimum distributed K point number = 286

  KPOINTS         CARTESIAN_X         CARTESIAN_Y         CARTESIAN_Z              WEIGHT
        1                   0                   0                   0             0.00025
        2                0.95                   0                   0              0.0015
        3                 0.9                   0                   0              0.0015
        4                0.85                   0                   0              0.0015
        5                 0.8                   0                   0              0.0015
        6                0.75                   0                   0              0.0015
        7                 0.7                   0                   0              0.0015
        8                0.65                   0                   0              0.0015
        9                 0.6                   0                   0              0.0015
       10                0.55                   0                   0              0.0015
       11                   0                   0                 0.5             0.00075
       12                0.95                0.95                   0               0.003
       13                0.95                 0.9                   0               0.006
       14                0.95                0.85                   0               0.006
       15                0.95                 0.8                   0               0.006
       16                0.95                0.75                   0               0.006
       17                0.95                 0.7                   0               0.006
       18                0.95                0.65                   0               0.006
       19                0.95                 0.6                   0               0.006
       20                0.95                0.55                   0               0.006
       21                0.95                 0.5                   0               0.003
       22                 0.9                 0.9                   0               0.003
       23                 0.9                0.85                   0               0.006
       24                 0.9                 0.8                   0               0.006
       25                 0.9                0.75                   0               0.006
       26                 0.9                 0.7                   0               0.006
       27                 0.9                0.65                   0               0.006
       28                 0.9                 0.6                   0               0.006
       29                 0.9                0.55                   0               0.006
       30                 0.9                 0.5                   0               0.003
       31                0.85                0.85                   0               0.003
       32                0.85                 0.8                   0               0.006
       33                0.85                0.75                   0               0.006
       34                0.85                 0.7                   0               0.006
       35                0.85                0.65                   0               0.006
       36                0.85                 0.6                   0               0.006
       37                0.85                0.55                   0               0.006
       38                0.85                 0.5                   0               0.003
       39                 0.8                 0.8                   0               0.003
       40                 0.8                0.75                   0               0.006
       41                 0.8                 0.7                   0               0.006
       42                 0.8                0.65                   0               0.006
       43                 0.8                 0.6                   0               0.006
       44                 0.8                0.55                   0               0.006
       45                 0.8                 0.5                   0               0.003
       46                0.75                0.75                   0               0.003
       47                0.75                 0.7                   0               0.006
       48                0.75                0.65                   0               0.006
       49                0.75                 0.6                   0               0.006
       50                0.75                0.55                   0               0.006
       51                0.75                 0.5                   0               0.003
       52                 0.7                 0.7                   0               0.003
       53                 0.7                0.65                   0               0.006
       54                 0.7                 0.6                   0               0.006
       55                 0.7                0.55                   0               0.006
       56                 0.7                 0.5                   0               0.003
       57                0.65                0.65                   0               0.003
       58                0.65                 0.6                   0               0.006
       59                0.65                0.55                   0               0.006
       60                0.65                 0.5                   0               0.003
       61                 0.6                 0.6                   0               0.003
       62                 0.6                0.55                   0               0.006
       63                 0.6                 0.5                   0               0.003
       64                0.55                0.55                   0               0.003
       65                0.55                 0.5                   0               0.003
       66                   0                 0.5                 0.5             0.00075
       67                0.95                0.95                0.95               0.002
       68                0.95                0.95                 0.9               0.006
       69                0.95                0.95                0.85               0.006
       70                0.95                0.95                 0.8               0.006
       71                0.95                0.95                0.75               0.006
       72                0.95                0.95                 0.7               0.006
       73                0.95                0.95                0.65               0.006
       74                0.95                0.95                 0.6               0.006
       75                0.95                0.95                0.55               0.006
       76                0.95                0.95                 0.5               0.003
       77                0.95                 0.9                 0.9               0.006
       78                0.95                0.85                 0.9               0.012
       79                0.95                 0.9                 0.8               0.012
       80                0.95                 0.9                0.75               0.012
       81                 0.9                 0.7                0.95               0.012
       82                 0.9                0.65                0.95               0.012
       83                0.95                 0.9                 0.6               0.012
       84                0.95                 0.9                0.55               0.012
       85                0.95                 0.9                 0.5               0.006
       86                0.95                0.85                0.85               0.006
       87                0.95                0.85                 0.8               0.012
       88                0.95                0.85                0.75               0.012
       89                0.95                0.85                 0.7               0.012
       90                0.95                0.85                0.65               0.012
       91                0.95                0.85                 0.6               0.012
       92                0.95                0.85                0.55               0.012
       93                0.95                0.85                 0.5               0.006
       94                0.95                 0.8                 0.8               0.006
       95                0.95                 0.8                0.75               0.012
       96                 0.8                 0.7                0.95               0.012
       97                 0.8                0.65                0.95               0.012
       98                0.95                 0.6                 0.8               0.012
       99                0.95                0.55                 0.8               0.012
      100                0.95                 0.8                 0.5               0.006
      101                0.95                0.75                0.75               0.006
      102                0.75                 0.7                0.95               0.012
      103                0.75                0.65                0.95               0.012
      104                0.95                 0.6                0.75               0.012
      105                0.95                0.55                0.75               0.012
      106                0.95                0.75                 0.5               0.006
      107                0.95                 0.7                 0.7               0.006
      108                0.95                 0.7                0.65               0.012
      109                0.95                 0.7                 0.6               0.012
      110                0.95                0.55                 0.7               0.012
      111                 0.7                 0.5                0.95               0.006
      112                0.95                0.65                0.65               0.006
      113                0.95                0.65                 0.6               0.012
      114                0.95                0.55                0.65               0.012
      115                0.65                 0.5                0.95               0.006
      116                0.95                 0.6                 0.6               0.006
      117                0.95                 0.6                0.55               0.012
      118                0.95                 0.6                 0.5               0.006
      119                0.95                0.55                0.55               0.006
      120                0.95                0.55                 0.5               0.006
      121                0.95                 0.5                 0.5              0.0015
      122                 0.9                 0.9                 0.9               0.002
      123                 0.9                 0.9                0.85               0.006
      124                 0.9                 0.9                 0.8               0.006
      125                 0.9                 0.9                0.75               0.006
      126                 0.9                 0.7                 0.9               0.006
      127                 0.9                0.65                 0.9               0.006
      128                 0.9                 0.9                 0.6               0.006
      129                 0.9                 0.9                0.55               0.006
      130                 0.9                 0.9                 0.5               0.003
      131                 0.9                0.85                0.85               0.006
      132                 0.9                0.85                 0.8               0.012
      133                 0.9                0.85                0.75               0.012
      134                 0.9                0.85                 0.7               0.012
      135                 0.9                0.85                0.65               0.012
      136                 0.9                0.85                 0.6               0.012
      137                 0.9                0.85                0.55               0.012
      138                 0.9                0.85                 0.5               0.006
      139                 0.9                 0.8                 0.8               0.006
      140                 0.9                 0.8                0.75               0.012
      141                 0.9                 0.8                 0.7               0.012
      142                 0.9                 0.8                0.65               0.012
      143                 0.9                 0.8                 0.6               0.012
      144                 0.9                 0.8                0.55               0.012
      145                 0.9                 0.8                 0.5               0.006
      146                 0.9                0.75                0.75               0.006
      147                 0.9                0.75                 0.7               0.012
      148                 0.9                0.75                0.65               0.012
      149                 0.9                0.75                 0.6               0.012
      150                 0.9                0.75                0.55               0.012
      151                 0.9                0.75                 0.5               0.006
[...]
       9        13.1710        0.00000

 246/286 kpoint (Cartesian) = 0.750000 0.600000 0.600000 (2202 pws)
       1      -0.954318     0.00600000
       2       0.969029     0.00600000
       3        1.31921     0.00600000
       4        3.48593     0.00600000
       5        3.84319     0.00600000
       6        5.70671     0.00600000
       7        6.28707     0.00505518
       8        9.41261        0.00000
       9        13.0737        0.00000

 247/286 kpoint (Cartesian) = 0.750000 0.600000 0.550000 (2206 pws)
       1      -0.655439      0.0120000
       2       0.677269      0.0120000
       3        1.40877      0.0120000
       4        3.16626      0.0120000
       5        4.06748      0.0120000
       6        5.51280      0.0120000
       7        6.20166      0.0118352
       8        9.14527        0.00000
       9        13.3589        0.00000

 248/286 kpoint (Cartesian) = 0.750000 0.600000 0.500000 (2210 pws)
       1      -0.499621     0.00600000
       2       0.489151     0.00600000
       3        1.49767     0.00600000
       4        3.02671     0.00600000
       5        4.18738     0.00600000
       6        5.37790     0.00600000
       7        6.21273     0.00587868
       8        9.05023        0.00000
       9        13.4996        0.00000

 249/286 kpoint (Cartesian) = 0.750000 0.550000 0.550000 (2210 pws)
       1      -0.339389     0.00600000
       2       0.830705     0.00600000
       3        1.02042     0.00600000
       4        2.83149     0.00600000
       5        4.35802     0.00600000
       6        5.56926     0.00600000
       7        5.82221     0.00600000
       8        8.88585        0.00000
       9        13.6656        0.00000

 250/286 kpoint (Cartesian) = 0.750000 0.550000 0.500000 (2202 pws)
       1      -0.165253     0.00600000
       2       0.696894     0.00600000
       3        1.02752     0.00600000
       4        2.69823     0.00600000
       5        4.50978     0.00600000
       6        5.48289     0.00600000
       7        5.75235     0.00600000
       8        8.79421        0.00000
       9        13.8282        0.00000

 251/286 kpoint (Cartesian) = 0.750000 0.500000 0.500000 (2188 pws)
       1      0.0323167     0.00150000
       2       0.784583     0.00150000
       3       0.784583     0.00150000
       4        2.56956     0.00150000
       5        4.69276     0.00150000
       6        5.52342     0.00150000
       7        5.52342     0.00150000
       8        8.70400        0.00000
       9        14.0192        0.00000

 252/286 kpoint (Cartesian) = 0.700000 0.700000 0.700000 (2196 pws)
       1       -1.87586     0.00200000
       2        1.76194     0.00200000
       3        1.76194     0.00200000
       4        2.46932     0.00200000
       5        5.61162     0.00200000
       6        5.61162     0.00200000
       7        6.78634    1.87882e-12
       8        10.6675        0.00000
       9        12.7825        0.00000

 253/286 kpoint (Cartesian) = 0.700000 0.700000 0.650000 (2199 pws)
       1       -1.59947     0.00600000
       2        1.31087     0.00600000
       3        2.03865     0.00600000
       4        2.56891     0.00600000
       5        5.01973     0.00600000
       6        5.46336     0.00600000
       7        6.57293    7.83033e-06
       8        10.1530        0.00000
       9        13.0550        0.00000

 254/286 kpoint (Cartesian) = 0.700000 0.700000 0.600000 (2208 pws)
       1       -1.29858     0.00600000
       2       0.818807     0.00600000
       3        2.33990     0.00600000
       4        2.77906     0.00600000
       5        4.49264     0.00600000
       6        5.15780     0.00600000
       7        6.59197    3.13884e-06
       8        9.73924        0.00000
       9        13.3512        0.00000

 255/286 kpoint (Cartesian) = 0.700000 0.700000 0.550000 (2200 pws)
       1       -1.01092     0.00600000
       2       0.407318     0.00600000
       3        2.62770     0.00600000
       4        2.97309     0.00600000
       5        4.06909     0.00600000
       6        4.87464     0.00600000
       7        6.67322    2.97436e-08
       8        9.46152        0.00000
       9        13.6360        0.00000

 256/286 kpoint (Cartesian) = 0.700000 0.700000 0.500000 (2204 pws)
       1      -0.865909     0.00300000
       2       0.220150     0.00300000
       3        2.77245     0.00300000
       4        3.05697     0.00300000
       5        3.87905     0.00300000
       6        4.75735     0.00300000
       7        6.71185    1.04902e-09
       8        9.36190        0.00000
       9        13.7823        0.00000

 257/286 kpoint (Cartesian) = 0.700000 0.650000 0.650000 (2207 pws)
       1       -1.32153     0.00600000
       2        1.43998     0.00600000
       3        1.76049     0.00600000
       4        2.64321     0.00600000
       5        4.63029     0.00600000
       6        5.29108     0.00600000
       7        6.17216     0.00597355
       8        9.64494        0.00000
       9        13.5204        0.00000

 258/286 kpoint (Cartesian) = 0.700000 0.650000 0.600000 (2209 pws)
       1       -1.01792      0.0120000
       2        1.06185      0.0120000
       3        1.92353      0.0120000
       4        2.87640      0.0120000
       5        4.14894      0.0120000
       6        5.07339      0.0120000
       7        6.04776      0.0119999
       8        9.23893        0.00000
       9        13.8417        0.00000

 259/286 kpoint (Cartesian) = 0.700000 0.650000 0.550000 (2202 pws)
       1      -0.725264      0.0120000
       2       0.656274      0.0120000
       3        2.16694      0.0120000
       4        3.10599      0.0120000
       5        3.75255      0.0120000
       6        4.80175      0.0120000
       7        6.08055      0.0119994
       8        8.96860        0.00000
       9        14.1258        0.00000

 260/286 kpoint (Cartesian) = 0.700000 0.650000 0.500000 (2206 pws)
       1      -0.575494     0.00600000
       2       0.466206     0.00600000
       3        2.28346     0.00600000
       4        3.22346     0.00600000
       5        3.56952     0.00600000
       6        4.67836     0.00600000
       7        6.10768     0.00599873
       8        8.87225        0.00000
       9        14.2650        0.00000

 261/286 kpoint (Cartesian) = 0.700000 0.600000 0.600000 (2200 pws)
       1      -0.709618     0.00600000
       2        1.20974     0.00600000
       3        1.53487     0.00600000
       4        3.12653     0.00600000
       5        3.71559     0.00600000
       6        5.06172     0.00600000
       7        5.66391     0.00600000
       8        8.84205        0.00000
       9        14.1801        0.00000

 262/286 kpoint (Cartesian) = 0.600000 0.550000 0.700000 (2204 pws)
       1      -0.408308      0.0120000
       2       0.910138      0.0120000
       3        1.64326      0.0120000
       4        3.27344      0.0120000
       5        3.46024      0.0120000
       6        4.88168      0.0120000
       7        5.55852      0.0120000
       8        8.58012        0.00000
       9        14.4736        0.00000

 263/286 kpoint (Cartesian) = 0.700000 0.500000 0.600000 (2206 pws)
       1      -0.249927     0.00600000
       2       0.718754     0.00600000
       3        1.73990     0.00600000
       4        3.17120     0.00600000
       5        3.53187     0.00600000
       6        4.75623     0.00600000
       7        5.56161     0.00600000
       8        8.48741        0.00000
       9        14.6178        0.00000

 264/286 kpoint (Cartesian) = 0.700000 0.550000 0.550000 (2211 pws)
       1     -0.0905335     0.00600000
       2        1.07149     0.00600000
       3        1.25560     0.00600000
       4        2.98248     0.00600000
       5        3.70442     0.00600000
       6        4.92398     0.00600000
       7        5.18012     0.00600000
       8        8.32568        0.00000
       9        14.7878        0.00000

 265/286 kpoint (Cartesian) = 0.700000 0.550000 0.500000 (2216 pws)
       1      0.0857626     0.00600000
       2       0.933555     0.00600000
       3        1.27001     0.00600000
       4        2.84907     0.00600000
       5        3.85006     0.00600000
       6        4.84277     0.00600000
       7        5.10380     0.00600000
       8        8.23613        0.00000
       9        14.9533        0.00000

 266/286 kpoint (Cartesian) = 0.700000 0.500000 0.500000 (2220 pws)
       1       0.285367     0.00150000
       2        1.02540     0.00150000
       3        1.02540     0.00150000
       4        2.71943     0.00150000
       5        4.02949     0.00150000
       6        4.87804     0.00150000
       7        4.87804     0.00150000
       8        8.14790        0.00000
       9        15.1482        0.00000

 267/286 kpoint (Cartesian) = 0.650000 0.650000 0.650000 (2215 pws)
       1       -1.04220     0.00200000
       2        1.71700     0.00200000
       3        1.71700     0.00200000
       4        2.33787     0.00200000
       5        4.69835     0.00200000
       6        4.69835     0.00200000
       7        5.72271     0.00200000
       8        9.14342        0.00000
       9        14.4999        0.00000

 268/286 kpoint (Cartesian) = 0.650000 0.650000 0.600000 (2199 pws)
       1      -0.736155     0.00600000
       2        1.31632     0.00600000
       3        2.01873     0.00600000
       4        2.45823     0.00600000
       5        4.17043     0.00600000
       6        4.60466     0.00600000
       7        5.50695     0.00600000
       8        8.74511        0.00000
       9        14.7946        0.00000

 269/286 kpoint (Cartesian) = 0.650000 0.650000 0.550000 (2205 pws)
       1      -0.438925     0.00600000
       2       0.911241     0.00600000
       3        2.30728     0.00600000
       4        2.64450     0.00600000
       5        3.74592     0.00600000
       6        4.39680     0.00600000
       7        5.48980     0.00600000
       8        8.48188        0.00000
       9        15.0771        0.00000

 270/286 kpoint (Cartesian) = 0.650000 0.650000 0.500000 (2210 pws)
       1      -0.284602     0.00300000
       2       0.717760     0.00300000
       3        2.45266     0.00300000
       4        2.73015     0.00300000
       5        3.55518     0.00300000
       6        4.29214     0.00300000
       7        5.50454     0.00300000
       8        8.38861        0.00000
       9        15.2220        0.00000

 271/286 kpoint (Cartesian) = 0.650000 0.600000 0.600000 (2209 pws)
       1      -0.425875     0.00600000
       2        1.48696     0.00600000
       3        1.75438     0.00600000
       4        2.57481     0.00600000
       5        3.84825     0.00600000
       6        4.46848     0.00600000
       7        5.11309     0.00600000
       8        8.35563        0.00000
       9        15.2775        0.00000

 272/286 kpoint (Cartesian) = 0.600000 0.550000 0.650000 (2217 pws)
       1      -0.120680      0.0120000
       2        1.17456      0.0120000
       3        1.90423      0.0120000
       4        2.80633      0.0120000
       5        3.47543      0.0120000
       6        4.31868      0.0120000
       7        4.97089      0.0120000
       8        8.10030        0.00000
       9        15.5858        0.00000

 273/286 kpoint (Cartesian) = 0.650000 0.500000 0.600000 (2220 pws)
       1      0.0418788     0.00600000
       2       0.978544     0.00600000
       3        2.01541     0.00600000
       4        2.92950     0.00600000
       5        3.29943     0.00600000
       6        4.21224     0.00600000
       7        4.96023     0.00600000
       8        8.01038        0.00000
       9        15.7342        0.00000

 274/286 kpoint (Cartesian) = 0.650000 0.550000 0.550000 (2226 pws)
       1       0.199873     0.00600000
       2        1.34884     0.00600000
       3        1.52280     0.00600000
       4        3.05428     0.00600000
       5        3.18222     0.00600000
       6        4.33045     0.00600000
       7        4.59334     0.00600000
       8        7.85185        0.00000
       9        15.9230        0.00000

 275/286 kpoint (Cartesian) = 0.650000 0.550000 0.500000 (2232 pws)
       1       0.379707     0.00600000
       2        1.20427     0.00600000
       3        1.54972     0.00600000
       4        3.00112     0.00600000
       5        3.23779     0.00600000
       6        4.25813     0.00600000
       7        4.50595     0.00600000
       8        7.76479        0.00000
       9        16.0929        0.00000

 276/286 kpoint (Cartesian) = 0.650000 0.500000 0.500000 (2220 pws)
       1       0.582658     0.00150000
       2        1.30278     0.00150000
       3        1.30278     0.00150000
       4        2.87140     0.00150000
       5        3.41196     0.00150000
       6        4.28442     0.00150000
       7        4.28442     0.00150000
       8        7.67891        0.00000
       9        16.2933        0.00000

 277/286 kpoint (Cartesian) = 0.600000 0.600000 0.600000 (2221 pws)
       1      -0.112102     0.00200000
       2        1.78900     0.00200000
       3        1.78900     0.00200000
       4        2.26818     0.00200000
       5        3.94003     0.00200000
       6        3.94003     0.00200000
       7        4.67832     0.00200000
       8        7.97439        0.00000
       9        16.2733        0.00000

 278/286 kpoint (Cartesian) = 0.600000 0.600000 0.550000 (2228 pws)
       1       0.199915     0.00600000
       2        1.45317     0.00600000
       3        2.07804     0.00600000
       4        2.38942     0.00600000
       5        3.51491     0.00600000
       6        3.90231     0.00600000
       7        4.45669     0.00600000
       8        7.72625        0.00000
       9        16.5539        0.00000

 279/286 kpoint (Cartesian) = 0.600000 0.600000 0.500000 (2234 pws)
       1       0.370061     0.00300000
       2        1.25193     0.00300000
       3        2.22383     0.00300000
       4        2.47845     0.00300000
       5        3.32372     0.00300000
       6        3.83232     0.00300000
       7        4.41889     0.00300000
       8        7.63931        0.00000
       9        16.6970        0.00000

 280/286 kpoint (Cartesian) = 0.600000 0.550000 0.550000 (2235 pws)
       1       0.525456     0.00600000
       2        1.65106     0.00600000
       3        1.80155     0.00600000
       4        2.54585     0.00600000
       5        3.28657     0.00600000
       6        3.80171     0.00600000
       7        4.07806     0.00600000
       8        7.48420        0.00000
       9        17.0255        0.00000

 281/286 kpoint (Cartesian) = 0.600000 0.550000 0.500000 (2228 pws)
       1       0.711793     0.00600000
       2        1.49517     0.00600000
       3        1.85398     0.00600000
       4        2.68116     0.00600000
       5        3.13225     0.00600000
       6        3.74769     0.00600000
       7        3.97043     0.00600000
       8        7.39976        0.00000
       9        17.2014        0.00000

 282/286 kpoint (Cartesian) = 0.600000 0.500000 0.500000 (2224 pws)
       1       0.921004     0.00150000
       2        1.60506     0.00150000
       3        1.60506     0.00150000
       4        2.84436     0.00150000
       5        3.00705     0.00150000
       6        3.75559     0.00150000
       7        3.75559     0.00150000
       8        7.31632        0.00000
       9        17.4148        0.00000

 283/286 kpoint (Cartesian) = 0.550000 0.550000 0.550000 (2230 pws)
       1       0.861505     0.00200000
       2        1.94037     0.00200000
       3        1.94037     0.00200000
       4        2.20430     0.00200000
       5        3.37624     0.00200000
       6        3.37624     0.00200000
       7        3.68160     0.00200000
       8        7.24748        0.00000
       9        17.9652        0.00000

 284/286 kpoint (Cartesian) = 0.550000 0.550000 0.500000 (2232 pws)
       1        1.06234     0.00300000
       2        1.76508     0.00300000
       3        2.08640     0.00300000
       4        2.26173     0.00300000
       5        3.18480     0.00300000
       6        3.38734     0.00300000
       7        3.53300     0.00300000
       8        7.16518        0.00000
       9        18.1054        0.00000

 285/286 kpoint (Cartesian) = 0.550000 0.500000 0.500000 (2240 pws)
       1        1.28649     0.00150000
       2        1.89446     0.00150000
       3        1.89446     0.00150000
       4        2.34115     0.00150000
       5        3.10330     0.00150000
       6        3.33001     0.00150000
       7        3.33001     0.00150000
       8        7.08373        0.00000
       9        18.3915        0.00000

 286/286 kpoint (Cartesian) = 0.500000 0.500000 0.500000 (2272 pws)
       1        1.54113    0.000250000
       2        2.04056    0.000250000
       3        2.04056    0.000250000
       4        2.04056    0.000250000
       5        3.13848    0.000250000
       6        3.13848    0.000250000
       7        3.13848    0.000250000
       8        7.00307        0.00000
       9        18.8476        0.00000



 --------------------------------------------
 !FINAL_ETOT_IS -181.1971664587636 eV
 --------------------------------------------






  |CLASS_NAME---------|NAME---------------|TIME(Sec)-----|CALLS----|AVG------|PER%-------
                                      total         163.38        17       9.6   1.0e+02%
                 Driver         driver_line         163.36         1   1.6e+02    1.e+02%
               PW_Basis      setuptransform        0.16728         1      0.17      0.10%
          ESolver_KS_PW                 Run         162.81         1   1.6e+02    1.e+02%
              Potential  update_from_charge        0.32741        10     0.033      0.20%
              Potential           cal_v_eff        0.32636        10     0.033      0.20%
                  PotXC           cal_v_eff        0.30490        10     0.030      0.19%
          XC_Functional                v_xc         106.87         5       21.       65.%
          XC_Functional          v_xc_libxc        0.30236        10     0.030      0.19%
              HSolverPW               solve         162.38         9       18.       99.%
        DiagoIterAssist      diagH_subspace         30.223      2574     0.012       18.%
             OperatorPW                hPsi         145.01     93870    0.0015       89.%
               Operator          EkineticPW        0.46899     93870   5.0e-06      0.29%
               Operator              VeffPW         144.26     93870    0.0015       88.%
             PW_Basis_K          recip2real         81.359    128219   0.00063       50.%
             PW_Basis_K    gathers_scatterp         7.4030    128219   5.8e-05       4.5%
             PW_Basis_K          real2recip         64.837    114462   0.00057       40.%
             PW_Basis_K    gatherp_scatters         1.3793    114462   1.2e-05      0.84%
        DiagoIterAssist     LAPACK_subspace        0.11747      2574   4.6e-05     0.072%
                DiagoCG           diag_once         121.40      2574     0.047       74.%
            ElecStatePW            psiToRho         9.7102         9       1.1       5.9%
 ----------------------------------------------------------------------------------------

 CLASS_NAME---------|NAME---------------|MEMORY(MB)--------
                                         101.2
             wavefunc                 psi          89.24
        Charge_Mixing                Rrho          2.848
        Charge_Mixing               dRrho          2.492
        Charge_Mixing                drho          2.492
 ----------------------------------------------------------

 Start  Time  : Mon Mar  6 13:47:53 2023
 Finish Time  : Mon Mar  6 13:50:36 2023
 Total  Time  : 0 h 2 mins 43 secs 
