 *********************************************************
 *                                                       *
 *                  WELCOME TO ABACUS v3.0               *
 *                                                       *
 *            'Atomic-orbital Based Ab-initio            *
 *                  Computation at UStc'                 *
 *                                                       *
 *          Website: http://abacus.ustc.edu.cn/          *
 *                                                       *
 *********************************************************
 Wed Mar 22 11:48:03 2023
 MAKE THE DIR         : OUT.blpstest/
Notice: symbol 'al_locpsp' is not an element symbol!!!! set the covalent radius to be 0.
Notice: symbol 'P_locpsp' is not an element symbol!!!! set the covalent radius to be 0.
 UNIFORM GRID DIM     : 40 * 40 * 40
 UNIFORM GRID DIM(BIG): 40 * 40 * 40
func,idXC_GGA_X_PBE 101
func,idXC_GGA_C_PBE 130
 DONE(0.180062   SEC) : SETUP UNITCELL
 DONE(0.210609   SEC) : SYMMETRY
 DONE(0.375465   SEC) : INIT K-POINTS
 ---------------------------------------------------------
 Self-consistent calculations for electrons
 ---------------------------------------------------------
 SPIN    KPOINTS         PROCESSORS  
 1       256             1           
 ---------------------------------------------------------
 Use plane wave basis
 ---------------------------------------------------------
 ELEMENT NATOM       XC          
 Al      1           
 P       1           
 ---------------------------------------------------------
 Initial plane wave basis and FFT box
 ---------------------------------------------------------
 DONE(0.467797   SEC) : INIT PLANEWAVE
 MEMORY FOR PSI (MB)  : 79.1719
 DONE(0.50554    SEC) : LOCAL POTENTIAL
 DONE(0.505571   SEC) : NON-LOCAL POTENTIAL
 DONE(0.505622   SEC) : INIT BASIS
 START CHARGE      : atomic
 DONE(0.591375   SEC) : INIT SCF
 ITER   ETOT(eV)       EDIFF(eV)      DRHO       TIME(s)    
 CG1    -2.311107e+02  0.000000e+00   3.274e+00  4.011e+01  
 CG2    -2.404156e+02  -9.304878e+00  2.729e-01  1.868e+01  
 CG3    -2.412744e+02  -8.588216e-01  1.014e-02  1.626e+01  
 CG4    -2.412915e+02  -1.715893e-02  3.670e-04  1.857e+01  
 CG5    -2.412934e+02  -1.821575e-03  1.287e-05  2.036e+01  
 CG6    -2.412934e+02  -4.148464e-05  3.206e-07  2.030e+01  
 CG7    -2.412934e+02  -1.260169e-06  2.176e-09  2.078e+01  
 CG8    -2.412934e+02  -2.402501e-08  1.024e-09  2.424e+01  
 CG9    -2.412934e+02  -1.484434e-09  3.323e-11  1.224e+01  

  |CLASS_NAME---------|NAME---------------|TIME(Sec)-----|CALLS----|AVG------|PER%-------
                       total               192.15         17        11        1e+02     %
   Driver              driver_line         192.14         1         1.9e+02   1e+02     %
   PW_Basis            setuptransform      0.15718        1         0.16      0.082     %
   ESolver_KS_PW       Run                 191.64         1         1.9e+02   1e+02     %
   Potential           update_from_charge  0.49915        10        0.05      0.26      %
   Potential           cal_v_eff           0.49779        10        0.05      0.26      %
   PW_Basis            real2recip          0.11839        98        0.0012    0.062     %
   PotXC               cal_v_eff           0.46445        10        0.046     0.24      %
   XC_Functional       v_xc                109.76         5         22        57        %
   XC_Functional       v_xc_libxc          0.46171        10        0.046     0.24      %
   HSolverPW           solve               191            9         21        99        %
   DiagoIterAssist     diagH_subspace      37.568         2304      0.016     20        %
   OperatorPW          hPsi                173.09         79887     0.0022    90        %
   Operator            EkineticPW          0.4572         79887     5.7e-06   0.24      %
   Operator            VeffPW              172.36         79887     0.0022    90        %
   PW_Basis_K          recip2real          98.651         107535    0.00092   51        %
   PW_Basis_K          gathers_scatterp    8.834          107535    8.2e-05   4.6       %
   PW_Basis_K          real2recip          72.66          98319     0.00074   38        %
   PW_Basis_K          gatherp_scatters    1.5375         98319     1.6e-05   0.8       %
   DiagoIterAssist     LAPACK_subspace     0.1235         2304      5.4e-05   0.064     %
   DiagoCG             diag_once           143.09         2304      0.062     74        %
   ElecStatePW         psiToRho            9.3421         9         1         4.9       %
 ----------------------------------------------------------------------------------------

 START  Time  : Wed Mar 22 11:48:03 2023
 FINISH Time  : Wed Mar 22 11:51:16 2023
 TOTAL  Time  : 1.9e+02
 SEE INFORMATION IN : OUT.blpstest/
