                                                                                     
                             WELCOME TO ABACUS                                       
                                                                                     
               'Atomic-orbital Based Ab-initio Computation at UStc'                  
                                                                                     
                     Website: http://abacus.ustc.edu.cn/                             
                                                                                     
    Version: Parallel, in development
    Processor Number is 16
    Start Time is Tue Mar 29 22:17:23 2022
                                                                                     
 ------------------------------------------------------------------------------------

 READING GENERAL INFORMATION
                           global_out_dir = OUT.stack/
                           global_in_card = INPUT
                               pseudo_dir = 
                              orbital_dir = 
                              pseudo_type = auto
                                    DRANK = 1
                                    DSIZE = 16
                                   DCOLOR = 1
                                    GRANK = 1
                                    GSIZE = 1




 >>>>>>>>>>>>>>>>>>>>>>>>>>>>>>>>>>>>>>>>>>>>>>>>>>>>>>>>>>>>>>>>>>>>>>
 |                                                                    |
 | Reading atom information in unitcell:                              |
 | From the input file and the structure file we know the number of   |
 | different elments in this unitcell, then we list the detail        |
 | information for each element, especially the zeta and polar atomic |
 | orbital number for each element. The total atom number is counted. |
 | We calculate the nearest atom distance for each atom and show the  |
 | Cartesian and Direct coordinates for each atom. We list the file   |
 | address for atomic orbitals. The volume and the lattice vectors    |
 | in real and reciprocal space is also shown.                        |
 |                                                                    |
 <<<<<<<<<<<<<<<<<<<<<<<<<<<<<<<<<<<<<<<<<<<<<<<<<<<<<<<<<<<<<<<<<<<<<<




 READING UNITCELL INFORMATION
                                    ntype = 1
                 atom label for species 1 = Al
                  lattice constant (Bohr) = 7.49843
              lattice constant (Angstrom) = 3.968

 READING ATOM TYPE 1
                               atom label = Al
                      L=0, number of zeta = 1
                      L=1, number of zeta = 1
                      L=2, number of zeta = 1
             number of atom for this type = 22
                      start magnetization = FALSE
                      start magnetization = FALSE
                      start magnetization = FALSE
                      start magnetization = FALSE
                      start magnetization = FALSE
                      start magnetization = FALSE
                      start magnetization = FALSE
                      start magnetization = FALSE
                      start magnetization = FALSE
                      start magnetization = FALSE
                      start magnetization = FALSE
                      start magnetization = FALSE
                      start magnetization = FALSE
                      start magnetization = FALSE
                      start magnetization = FALSE
                      start magnetization = FALSE
                      start magnetization = FALSE
                      start magnetization = FALSE
                      start magnetization = FALSE
                      start magnetization = FALSE
                      start magnetization = FALSE
                      start magnetization = FALSE

                        TOTAL ATOM NUMBER = 22

 DIRECT COORDINATES
         atom                   x                   y                   z                 mag                  vx                  vy                  vz
     taud_Al1                   0                   0         0.000110747                   0                   0                   0                   0
     taud_Al2            0.333333            0.333333           0.0452732                   0                   0                   0                   0
     taud_Al3            0.666667            0.666667           0.0907411                   0                   0                   0                   0
     taud_Al4                   0                   0            0.135869                   0                   0                   0                   0
     taud_Al5            0.333333            0.333333            0.181383                   0                   0                   0                   0
     taud_Al6                   0                   0            0.226859                   0                   0                   0                   0
     taud_Al7                 0.5                 0.5            0.273387                   0                   0                   0                   0
     taud_Al8            0.833333            0.833333            0.318641                   0                   0                   0                   0
     taud_Al9            0.166667            0.166667            0.363933                   0                   0                   0                   0
    taud_Al10                 0.5                 0.5            0.409045                   0                   0                   0                   0
    taud_Al11            0.833333            0.833333            0.454545                   0                   0                   0                   0
    taud_Al12                 0.5                 0.5            0.500046                   0                   0                   0                   0
    taud_Al13            0.166667            0.166667            0.545158                   0                   0                   0                   0
    taud_Al14            0.833333            0.833333             0.59045                   0                   0                   0                   0
    taud_Al15                 0.5                 0.5            0.635704                   0                   0                   0                   0
    taud_Al16                   0                   0            0.682232                   0                   0                   0                   0
    taud_Al17            0.333333            0.333333            0.727708                   0                   0                   0                   0
    taud_Al18                   0                   0            0.773222                   0                   0                   0                   0
    taud_Al19            0.666667            0.666667             0.81835                   0                   0                   0                   0
    taud_Al20            0.333333            0.333333            0.863818                   0                   0                   0                   0
    taud_Al21                   0                   0             0.90898                   0                   0                   0                   0
    taud_Al22            0.666667            0.666667            0.954545                   0                   0                   0                   0


                          Volume (Bohr^3) = 2318.86
                             Volume (A^3) = 343.619

 Lattice vectors: (Cartesian coordinate: in unit of a_0)
            +0.707107                  +0                  +0
            +0.353553           +0.612372                  +0
                   +0                  +0            +12.7017
 Reciprocal vectors: (Cartesian coordinate: in unit of 2 pi/a_0)
             +1.41421           -0.816497                  +0
                   +0            +1.63299                  -0
                   +0                  -0          +0.0787296




 >>>>>>>>>>>>>>>>>>>>>>>>>>>>>>>>>>>>>>>>>>>>>>>>>>>>>>>>>>>>>>>>>>>>>>
 |                                                                    |
 | Reading pseudopotentials files:                                    |
 | The pseudopotential file is in UPF format. The 'NC' indicates that |
 | the type of pseudopotential is 'norm conserving'. Functional of    |
 | exchange and correlation is decided by 4 given parameters in UPF   |
 | file.  We also read in the 'core correction' if there exists.      |
 | Also we can read the valence electrons number and the maximal      |
 | angular momentum used in this pseudopotential. We also read in the |
 | trail wave function, trail atomic density and local-pseudopotential|
 | on logrithmic grid. The non-local pseudopotential projector is also|
 | read in if there is any.                                           |
 |                                                                    |
 <<<<<<<<<<<<<<<<<<<<<<<<<<<<<<<<<<<<<<<<<<<<<<<<<<<<<<<<<<<<<<<<<<<<<<




                PAO radial cut off (Bohr) = 15

 Read in pseudopotential file is Al_ONCV_PBE-1.2.upf
                     pseudopotential type = NC
                            functional Ex = PBE
                            functional Ec = 
                          functional GCEx = 
                          functional GCEc = 
                 nonlocal core correction = 0
                        valence electrons = 11
                                     lmax = 1
                           number of zeta = 0
                     number of projectors = 4
                           L of projector = 0
                           L of projector = 0
                           L of projector = 1
                           L of projector = 1
     initial pseudo atomic orbital number = 0
                                   NLOCAL = 198

 SETUP THE ELECTRONS NUMBER
            electron number of element Al = 11
      total electron number of element Al = 242
                           occupied bands = 121
                                   NBANDS = 130
 DONE : SETUP UNITCELL Time : 0.0112829 (SEC)





 >>>>>>>>>>>>>>>>>>>>>>>>>>>>>>>>>>>>>>>>>>>>>>>>>>>>>>>>>>>>>>>>>>>>>>
 |                                                                    |
 | Doing symmetry analysis:                                           |
 | We calculate the norm of 3 vectors and the angles between them,    |
 | the type of Bravais lattice is given. We can judge if the unticell |
 | is a primitive cell. Finally we give the point group operation for |
 | this unitcell. We we use the point group operations to do symmetry |
 | analysis on given k-point mesh and the charge density.             |
 |                                                                    |
 <<<<<<<<<<<<<<<<<<<<<<<<<<<<<<<<<<<<<<<<<<<<<<<<<<<<<<<<<<<<<<<<<<<<<<




 LATTICE VECTORS: (CARTESIAN COORDINATE: IN UNIT OF A0)
            +0.707107                  +0                  +0
            +0.353553           +0.612372                  +0
                   +0                  +0            +12.7017
                       right hand lattice = 1
                                   NORM_A = 0.707107
                                   NORM_B = 0.707107
                                   NORM_C = 12.7017
                           ALPHA (DEGREE) = 60
                           BETA  (DEGREE) = 90
                           GAMMA (DEGREE) = 90
                             BRAVAIS TYPE = 4
                     BRAVAIS LATTICE NAME = 04. Hexagonal cell
 STANDARD LATTICE VECTORS: (CARTESIAN COORDINATE: IN UNIT OF A0)
            +0.707107                  +0                  +0
            +0.353553           +0.612372                  +0
                   +0                  +0            +12.7017
                                    IBRAV = 4
                                  BRAVAIS = HEXAGONAL CELL
                       LATTICE CONSTANT A = 38.1903
                                C/A RATIO = 0.666981
                                    ibrav = 4
                        ROTATION MATRICES = 24
              PURE POINT GROUP OPERATIONS = 2
                   SPACE GROUP OPERATIONS = 2
                                       C2 = 0
                                       C3 = 0
                                       C4 = 0
                                       C6 = 0
                                       S1 = 1
                                       S3 = 0
                                       S4 = 0
                                       S6 = 0
                              POINT GROUP = C_1h
 DONE : SYMMETRY Time : 0.0457363 (SEC)





 >>>>>>>>>>>>>>>>>>>>>>>>>>>>>>>>>>>>>>>>>>>>>>>>>>>>>>>>>>>>>>>>>>>>>>
 |                                                                    |
 | Setup K-points                                                     |
 | We setup the k-points according to input parameters.               |
 | The reduced k-points are set according to symmetry operations.     |
 | We treat the spin as another set of k-points.                      |
 |                                                                    |
 <<<<<<<<<<<<<<<<<<<<<<<<<<<<<<<<<<<<<<<<<<<<<<<<<<<<<<<<<<<<<<<<<<<<<<





 SETUP K-POINTS
                                    nspin = 1
                   Input type of k points = Monkhorst-Pack(Gamma)
                                   nkstot = 100
                               nkstot_ibz = 31
      IBZ             DirectX             DirectY             DirectZ              Weight    ibz2bz
        1                   0                   0                   0                0.01         0
        2                   0                 0.9                   0                0.04         1
        3                 0.8                   0                   0                0.04         2
        4                   0                 0.7                   0                0.04         3
        5                 0.6                   0                   0                0.04         4
        6                   0                 0.5                   0                0.02         5
        7                 0.9                 0.9                   0                0.02        11
        8                 0.9                 0.8                   0                0.04        12
        9                 0.9                 0.7                   0                0.04        13
       10                 0.9                 0.6                   0                0.04        14
       11                 0.9                 0.5                   0                0.04        15
       12                 0.9                 0.4                   0                0.04        16
       13                 0.9                 0.3                   0                0.04        17
       14                 0.9                 0.2                   0                0.04        18
       15                 0.9                 0.1                   0                0.02        19
       16                 0.8                 0.8                   0                0.02        22
       17                 0.8                 0.7                   0                0.04        23
       18                 0.8                 0.6                   0                0.04        24
       19                 0.8                 0.5                   0                0.04        25
       20                 0.8                 0.4                   0                0.04        26
       21                 0.8                 0.3                   0                0.04        27
       22                 0.2                 0.8                   0                0.02        28
       23                 0.7                 0.7                   0                0.02        33
       24                 0.7                 0.6                   0                0.04        34
       25                 0.7                 0.5                   0                0.04        35
       26                 0.7                 0.4                   0                0.04        36
       27                 0.7                 0.3                   0                0.02        37
       28                 0.6                 0.6                   0                0.02        44
       29                 0.6                 0.5                   0                0.04        45
       30                 0.4                 0.6                   0                0.02        46
       31                 0.5                 0.5                   0                0.01        55
                               nkstot now = 31

  KPOINTS            DIRECT_X            DIRECT_Y            DIRECT_Z              WEIGHT
        1                   0                   0                   0                0.01
        2                   0                 0.9                   0                0.04
        3                 0.8                   0                   0                0.04
        4                   0                 0.7                   0                0.04
        5                 0.6                   0                   0                0.04
        6                   0                 0.5                   0                0.02
        7                 0.9                 0.9                   0                0.02
        8                 0.9                 0.8                   0                0.04
        9                 0.9                 0.7                   0                0.04
       10                 0.9                 0.6                   0                0.04
       11                 0.9                 0.5                   0                0.04
       12                 0.9                 0.4                   0                0.04
       13                 0.9                 0.3                   0                0.04
       14                 0.9                 0.2                   0                0.04
       15                 0.9                 0.1                   0                0.02
       16                 0.8                 0.8                   0                0.02
       17                 0.8                 0.7                   0                0.04
       18                 0.8                 0.6                   0                0.04
       19                 0.8                 0.5                   0                0.04
       20                 0.8                 0.4                   0                0.04
       21                 0.8                 0.3                   0                0.04
       22                 0.2                 0.8                   0                0.02
       23                 0.7                 0.7                   0                0.02
       24                 0.7                 0.6                   0                0.04
       25                 0.7                 0.5                   0                0.04
       26                 0.7                 0.4                   0                0.04
       27                 0.7                 0.3                   0                0.02
       28                 0.6                 0.6                   0                0.02
       29                 0.6                 0.5                   0                0.04
       30                 0.4                 0.6                   0                0.02
       31                 0.5                 0.5                   0                0.01

           k-point number in this process = 31
       minimum distributed K point number = 31

  KPOINTS         CARTESIAN_X         CARTESIAN_Y         CARTESIAN_Z              WEIGHT
        1                   0                   0                   0                0.02
        2                   0             1.46969                   0                0.08
        3             1.13137           -0.653197                   0                0.08
        4                   0              1.1431                   0                0.08
        5            0.848528           -0.489898                   0                0.08
        6                   0            0.816497                   0                0.04
        7             1.27279            0.734847                   0                0.04
        8             1.27279            0.571548                   0                0.08
        9             1.27279            0.408248                   0                0.08
       10             1.27279            0.244949                   0                0.08
       11             1.27279           0.0816497                   0                0.08
       12             1.27279          -0.0816497                   0                0.08
       13             1.27279           -0.244949                   0                0.08
       14             1.27279           -0.408248                   0                0.08
       15             1.27279           -0.571548                   0                0.04
       16             1.13137            0.653197                   0                0.04
       17             1.13137            0.489898                   0                0.08
       18             1.13137            0.326599                   0                0.08
       19             1.13137            0.163299                   0                0.08
       20             1.13137                   0                   0                0.08
       21             1.13137           -0.163299                   0                0.08
       22            0.282843              1.1431                   0                0.04
       23            0.989949            0.571548                   0                0.04
       24            0.989949            0.408248                   0                0.08
       25            0.989949            0.244949                   0                0.08
       26            0.989949           0.0816497                   0                0.08
       27            0.989949          -0.0816497                   0                0.04
       28            0.848528            0.489898                   0                0.04
       29            0.848528            0.326599                   0                0.08
       30            0.565685            0.653197                   0                0.04
       31            0.707107            0.408248                   0                0.02

  KPOINTS            DIRECT_X            DIRECT_Y            DIRECT_Z              WEIGHT
        1                   0                   0                   0                0.02
        2                   0                 0.9                   0                0.08
        3                 0.8                   0                   0                0.08
        4                   0                 0.7                   0                0.08
        5                 0.6                   0                   0                0.08
        6                   0                 0.5                   0                0.04
        7                 0.9                 0.9                   0                0.04
        8                 0.9                 0.8                   0                0.08
        9                 0.9                 0.7                   0                0.08
       10                 0.9                 0.6                   0                0.08
       11                 0.9                 0.5                   0                0.08
       12                 0.9                 0.4                   0                0.08
       13                 0.9                 0.3                   0                0.08
       14                 0.9                 0.2                   0                0.08
       15                 0.9                 0.1                   0                0.04
       16                 0.8                 0.8                   0                0.04
       17                 0.8                 0.7                   0                0.08
       18                 0.8                 0.6                   0                0.08
       19                 0.8                 0.5                   0                0.08
       20                 0.8                 0.4                   0                0.08
       21                 0.8                 0.3                   0                0.08
       22                 0.2                 0.8                   0                0.04
       23                 0.7                 0.7                   0                0.04
       24                 0.7                 0.6                   0                0.08
       25                 0.7                 0.5                   0                0.08
       26                 0.7                 0.4                   0                0.08
       27                 0.7                 0.3                   0                0.04
       28                 0.6                 0.6                   0                0.04
       29                 0.6                 0.5                   0                0.08
       30                 0.4                 0.6                   0                0.04
       31                 0.5                 0.5                   0                0.02
 DONE : INIT K-POINTS Time : 0.0463926 (SEC)





 >>>>>>>>>>>>>>>>>>>>>>>>>>>>>>>>>>>>>>>>>>>>>>>>>>>>>>>>>>>>>>>>>>>>>>
 |                                                                    |
 | Setup plane waves:                                                 |
 | Use the energy cutoff and the lattice vectors to generate the      |
 | dimensions of FFT grid. The number of FFT grid on each processor   |
 | is 'nrxx'. The number of plane wave basis in reciprocal space is   |
 | different for charege/potential and wave functions. We also set    |
 | the 'sticks' for the parallel of FFT.                              |
 |                                                                    |
 <<<<<<<<<<<<<<<<<<<<<<<<<<<<<<<<<<<<<<<<<<<<<<<<<<<<<<<<<<<<<<<<<<<<<<





 SETUP THE PLANE WAVE BASIS
     energy cutoff for wavefunc (unit:Ry) = 40
            [fft grid for wave functions] = 24, 24, 384
          [fft grid for charge/potential] = 24, 24, 384
                      [fft grid division] = 1, 1, 1
      [big fft grid for charge/potential] = 24, 24, 384
                                     nbxx = 13824
                                     nrxx = 13824

 SETUP PLANE WAVES FOR CHARGE/POTENTIAL
                    number of plane waves = 79607
                         number of sticks = 313

 SETUP PLANE WAVES FOR WAVE FUNCTIONS
                    number of plane waves = 16861
                         number of sticks = 109

 PARALLEL PW FOR CHARGE/POTENTIAL
     PROC   COLUMNS(POT)             PW
        1             19           4955
        2             19           4955
        3             20           4994
        4             19           4957
        5             19           4957
        6             19           4955
        7             19           4955
        8             19           4955
        9             20           4970
       10             20           5004
       11             20           5004
       12             20           4970
       13             20           5004
       14             20           5000
       15             20           4970
       16             20           5002
 --------------- sum -------------------
       16            313          79607

 PARALLEL PW FOR WAVE FUNCTIONS
     PROC     COLUMNS(W)             PW
        1              7           1063
        2              7           1065
        3              7           1057
        4              7           1045
        5              7           1045
        6              6           1026
        7              7           1061
        8              7           1051
        9              7           1051
       10              7           1085
       11              7           1085
       12              6           1020
       13              6           1024
       14              7           1061
       15              7           1061
       16              7           1061
 --------------- sum -------------------
       16            109          16861

 SETUP COORDINATES OF PLANE WAVES
              number of total plane waves = 79607

 SETUP COORDINATES OF PLANE WAVES
                            number of |g| = 2245
                                  max |g| = 227.764
                                  min |g| = 0
 DONE : INIT PLANEWAVE Time : 0.0884048 (SEC)

                                     npwx = 747

 SETUP NONLOCAL PSEUDOPOTENTIALS IN PLANE WAVE BASIS
 Al non-local projectors:
 projector 1 L=0
 projector 2 L=0
 projector 3 L=1
 projector 4 L=1
      TOTAL NUMBER OF NONLOCAL PROJECTORS = 176
 DONE : LOCAL POTENTIAL Time : 0.161192 (SEC)


 Init Non-Local PseudoPotential table : 
 Init Non-Local-Pseudopotential done.
 DONE : NON-LOCAL POTENTIAL Time : 0.173291 (SEC)

                                start_pot = atomic
 DONE : INIT POTENTIAL Time : 0.215472 (SEC)


 Make real space PAO into reciprocal space.
       max mesh points in Pseudopotential = 601
     dq(describe PAO in reciprocal space) = 0.01
                                    max q = 764

 number of pseudo atomic orbitals for Al is 0
 DONE : INIT BASIS Time : 9.81398 (SEC)


 -------------------------------------------
 SELF-CONSISTENT
 -------------------------------------------

 PW ALGORITHM --------------- ION=   1  ELEC=   1--------------------------------
  K-point    CG iter num      Time(Sec)
        1       8.615385       2.588307
        2       8.653846       2.561953
        3       8.492308       2.554567
        4       8.569231       2.533028
        5       8.461538       2.505672
        6       8.546154       2.519199
        7       8.553846       2.591994
        8       8.569231       2.599570
        9       8.646154       2.624357
       10       8.623077       2.591070
       11       8.553846       2.615211
       12       8.546154       2.564880
       13       8.523077       2.571404
       14       8.661538       2.603826
       15       8.523077       2.570097
       16       8.584615       2.622495
       17       8.569231       2.604245
       18       8.400000       2.536673
       19       8.553846       2.552401
       20       8.492308       2.531819
       21       8.530769       2.546577
       22       8.492308       2.517237
       23       8.500000       2.578524
       24       8.507692       2.561958
       25       8.530769       2.549721
       26       8.469231       2.542540
       27       8.469231       2.523457
       28       8.546154       2.556318
       29       8.607692       2.574704
       30       8.484615       2.519328
       31       8.553846       2.585175
 Notice: Threshold on eigenvalues was too large.
 dr2=0.450255 < diago_error=2.420000
 Origin ETHR = 0.010000
 New    ETHR = 0.000186
  K-point    CG iter num      Time(Sec)
        1       4.315385       1.439502
        2       4.792308       1.644755
        3       5.307692       1.857870
        4       5.684615       2.009198
        5       5.953846       2.024454
        6       6.161538       2.069339
        7       5.000000       1.766288
        8       5.361538       1.875152
        9       5.684615       2.016843
       10       5.961538       2.065430
       11       6.053846       2.108083
       12       6.161538       2.132685
       13       5.723077       2.015705
       14       5.446154       1.902530
       15       5.053846       1.775156
       16       5.392308       1.896161
       17       5.507692       1.927997
       18       6.300000       2.242887
       19       6.876923       2.423624
       20       6.753846       2.344317
       21       6.507692       2.288308
       22       6.230769       2.152332
       23       5.746154       2.005487
       24       5.930769       2.087535
       25       6.692308       2.345551
       26       7.146154       2.499216
       27       7.276923       2.544708
       28       5.961538       2.111323
       29       6.353846       2.208488
       30       6.446154       2.189564
       31       6.569231       2.292420

 Density error is 0.470858300207
                          Error Threshold = 0.000186055884

       Energy                       Rydberg                            eV
   E_KohnSham            -3043.950253831414           -41415.067880653558
     E_Harris            -3044.012519697423           -41415.915051222190
      E_Fermi               +0.877887711892              +11.944275085916

 PW ALGORITHM --------------- ION=   1  ELEC=   2--------------------------------
  K-point    CG iter num      Time(Sec)
        1       2.138462       0.662732
        2       2.000000       0.558377
        3       2.023077       0.625529
        4       2.023077       0.568670
        5       2.000000       0.614837
        6       2.015385       0.571146
        7       2.000000       0.621099
        8       2.084615       0.611868
        9       2.023077       0.632018
       10       2.015385       0.574821
       11       2.000000       0.621940
       12       2.015385       0.572280
       13       2.023077       0.627690
       14       2.023077       0.576423
       15       2.000000       0.623742
       16       2.030769       0.582533
       17       2.023077       0.632820
       18       2.161538       0.628966
       19       2.061538       0.643287
       20       2.000000       0.566975
       21       2.061538       0.639729
       22       2.046154       0.584926
       23       2.023077       0.623947
       24       2.015385       0.579626
       25       2.038462       0.632312
       26       2.000000       0.575054
       27       2.000000       0.614632
       28       2.000000       0.573891
       29       2.015385       0.625261
       30       2.023077       0.574694
       31       2.023077       0.627458

 Density error is 1.060069384982
                          Error Threshold = 0.000194569546

       Energy                       Rydberg                            eV
   E_KohnSham            -3043.086198538378           -41403.311805281213
     E_Harris            -3043.961445284292           -41415.220148181594
      E_Fermi               +0.877234217511              +11.935383838716

 PW ALGORITHM --------------- ION=   1  ELEC=   3--------------------------------
  K-point    CG iter num      Time(Sec)
        1       9.576923       3.246772
        2      10.015385       3.404541
        3       9.830769       3.381047
        4       9.669231       3.252855
        5       9.538462       3.223699
        6       9.723077       3.295934
        7       9.953846       3.444926
        8       9.123077       3.148998
        9       9.284615       3.176140
       10       9.084615       3.114358
       11       9.392308       3.190892
       12       9.353846       3.244125
       13       9.084615       3.078523
       14       9.315385       3.186022
       15       9.223077       3.191261
       16       9.876923       3.423419
       17       9.200000       3.167591
       18       9.130769       3.133383
       19       9.515385       3.246157
       20       9.276923       3.141422
       21       9.446154       3.236753
       22       9.307692       3.145502
       23       9.761538       3.358428
       24       9.315385       3.178216
       25       9.392308       3.210870
       26       9.338462       3.175157
       27       9.130769       3.116679
       28       9.746154       3.351325
       29       9.384615       3.202819
       30       9.307692       3.164342
       31       9.661538       3.363691

 Density error is 8597.942561590109
                          Error Threshold = 0.000194569546

       Energy                       Rydberg                            eV
   E_KohnSham            -3015.042664243301           -41021.759946809754
     E_Harris            -3118.398094235159           -42427.982713939113
      E_Fermi               +0.069334821088               +0.943348636602

 PW ALGORITHM --------------- ION=   1  ELEC=   4--------------------------------
  K-point    CG iter num      Time(Sec)
        1       7.453846       2.440287
        2       7.546154       2.470705
        3       8.000000       2.709516
        4       8.392308       2.764139
        5       8.346154       2.792465
        6       9.261538       3.062367
        7       7.415385       2.481595
        8       7.815385       2.637800
        9       8.438462       2.864502
       10       8.600000       2.903501
       11       9.438462       3.185994
       12       9.646154       3.249845
       13       8.623077       2.916752
       14       8.192308       2.739162
       15       7.938462       2.669126
       16       8.161538       2.779687
       17       8.507692       2.894830
       18       8.592308       2.915560
       19       8.930769       3.003817
       20       9.069231       3.092049
       21       8.776923       2.948623
       22       8.661538       2.900250
       23       8.523077       2.895803
       24       8.769231       2.939397
       25       8.961538       3.045449
       26       9.492308       3.178544
       27       9.161538       3.069961
       28       8.615385       2.909379
       29       9.192308       3.112152
       30       8.615385       2.860586
       31       8.338462       2.821702

 Density error is 356.085227590149
                          Error Threshold = 0.000194569546

       Energy                       Rydberg                            eV
   E_KohnSham            -3039.751387708148           -41357.939376237970
     E_Harris            -3045.561148454164           -41436.985226400524
      E_Fermi               +0.851420152372              +11.584165464283

 PW ALGORITHM --------------- ION=   1  ELEC=   5--------------------------------
  K-point    CG iter num      Time(Sec)
        1       3.084615       0.979161
        2       3.800000       1.267854
        3       4.592308       1.587023
        4       5.515385       1.872329
        5       6.715385       2.293393
        6       6.561538       2.246161
        7       3.661538       1.240762
        8       4.353846       1.495675
        9       5.023077       1.766010
       10       6.046154       2.081538
       11       6.861538       2.354642
       12       7.107692       2.448019
       13       6.230769       2.124035
       14       5.007692       1.765941
       15       4.100000       1.415672
       16       4.492308       1.539137
       17       5.038462       1.751572
       18       6.153846       2.124830
       19       7.207692       2.472365
       20       7.992308       2.735650
       21       7.630769       2.650325
       22       6.184615       2.110604
       23       5.353846       1.849278
       24       6.138462       2.132413
       25       7.484615       2.564645
       26       8.800000       3.011502
       27       8.484615       2.901649
       28       6.553846       2.266833
       29       7.476923       2.584092
       30       8.623077       2.922214
       31       6.261538       2.161604

 Density error is 651.584774694136
                          Error Threshold = 0.000194569546

       Energy                       Rydberg                            eV
   E_KohnSham            -3040.119642407303           -41362.949738461757
     E_Harris            -3046.131302148167           -41444.742565374720
      E_Fermi               +0.849057757437              +11.552023432250

 PW ALGORITHM --------------- ION=   1  ELEC=   6--------------------------------
  K-point    CG iter num      Time(Sec)
        1       3.076923       1.007133
        2       3.523077       1.163312
        3       4.053846       1.378346
        4       4.461538       1.489666
        5       5.123077       1.747823
        6       4.953846       1.687604
        7       3.715385       1.267081
        8       4.076923       1.396298
        9       4.792308       1.669764
       10       5.346154       1.846433
       11       5.376923       1.856042
       12       5.500000       1.936716
       13       5.038462       1.751035
       14       4.546154       1.555734
       15       4.107692       1.401923
       16       4.076923       1.415925
       17       4.900000       1.742129
       18       5.853846       2.036989
       19       6.430769       2.230176
       20       7.323077       2.546109
       21       6.423077       2.212527
       22       5.907692       2.060876
       23       4.815385       1.680739
       24       5.669231       1.965468
       25       6.700000       2.338016
       26       7.892308       2.709818
       27       7.946154       2.754717
       28       4.946154       1.712301
       29       5.715385       1.966910
       30       7.176923       2.446619
       31       4.753846       1.642852

 Density error is 166.099686460949
                          Error Threshold = 0.000194569546

       Energy                       Rydberg                            eV
   E_KohnSham            -3042.623924859365           -41397.022249211208
     E_Harris            -3044.386877491490           -41421.008450312220
      E_Fermi               +0.859609891588              +11.695592582766

 PW ALGORITHM --------------- ION=   1  ELEC=   7--------------------------------
  K-point    CG iter num      Time(Sec)
        1       2.761538       0.865580
        2       3.053846       0.971725
        3       3.653846       1.234674
        4       3.407692       1.121655
        5       3.069231       1.008647
        6       2.923077       0.952319
        7       3.261538       1.104549
        8       3.676923       1.253743
        9       3.915385       1.330017
       10       3.469231       1.163370
       11       3.092308       1.026327
       12       3.115385       1.005883
       13       3.446154       1.140560
       14       3.938462       1.350641
       15       3.676923       1.267012
       16       3.530769       1.189968
       17       3.930769       1.399445
       18       4.569231       1.559260
       19       4.707692       1.631431
       20       4.076923       1.377617
       21       4.661538       1.608119
       22       4.607692       1.559282
       23       3.592308       1.215248
       24       3.607692       1.208432
       25       4.723077       1.638716
       26       6.061538       2.119985
       27       5.338462       1.855868
       28       3.100000       1.024984
       29       3.192308       1.046389
       30       3.938462       1.337755
       31       3.176923       1.035161

 Density error is 83.107784011064
                          Error Threshold = 0.000194569546

       Energy                       Rydberg                            eV
   E_KohnSham            -3043.361516161342           -41407.057693713345
     E_Harris            -3044.162846531001           -41417.960352721144
      E_Fermi               +0.862167381983              +11.730389024712

 PW ALGORITHM --------------- ION=   1  ELEC=   8--------------------------------
  K-point    CG iter num      Time(Sec)
        1       2.369231       0.724656
        2       3.015385       0.990913
        3       3.338462       1.104426
        4       2.846154       0.901018
        5       2.530769       0.787413
        6       2.476923       0.789526
        7       2.946154       0.952180
        8       3.476923       1.183659
        9       3.476923       1.170510
       10       2.676923       0.842715
       11       2.530769       0.825335
       12       2.538462       0.792340
       13       2.661538       0.836464
       14       3.430769       1.143556
       15       3.453846       1.170119
       16       3.407692       1.156684
       17       3.623077       1.231405
       18       4.530769       1.576752
       19       4.092308       1.400424
       20       3.715385       1.260600
       21       3.869231       1.311121
       22       4.761538       1.616796
       23       2.930769       0.967716
       24       2.953846       0.973139
       25       4.138462       1.401519
       26       4.215385       1.418807
       27       3.684615       1.232122
       28       2.507692       0.810613
       29       2.530769       0.792462
       30       3.553846       1.184130
       31       2.461538       0.766500

 Density error is 4.348480408061
                          Error Threshold = 0.000194569546

       Energy                       Rydberg                            eV
   E_KohnSham            -3043.743698095328           -41412.257545688204
     E_Harris            -3043.814154593104           -41413.216155519083
      E_Fermi               +0.868978674920              +11.823061419400

 PW ALGORITHM --------------- ION=   1  ELEC=   9--------------------------------
  K-point    CG iter num      Time(Sec)
        1       2.253846       0.669855
        2       2.500000       0.838968
        3       2.446154       0.775468
        4       2.376923       0.707723
        5       2.246154       0.702136
        6       2.238462       0.670212
        7       2.461538       0.781907
        8       2.976923       0.990532
        9       2.476923       0.767652
       10       2.330769       0.716986
       11       2.269231       0.720675
       12       2.261538       0.667704
       13       2.315385       0.729413
       14       2.453846       0.762113
       15       3.092308       1.027313
       16       2.461538       0.778906
       17       2.446154       0.780702
       18       3.023077       0.988567
       19       2.953846       0.949217
       20       2.776923       0.902917
       21       2.838462       0.929864
       22       2.876923       0.905399
       23       2.361538       0.725948
       24       2.353846       0.751994
       25       3.146154       1.030512
       26       2.776923       0.889552
       27       2.946154       0.939189
       28       2.246154       0.716252
       29       2.284615       0.692173
       30       2.607692       0.826898
       31       2.253846       0.694116

 Density error is 13.856703855270
                          Error Threshold = 0.000194569546

       Energy                       Rydberg                            eV
   E_KohnSham            -3043.758374383130           -41412.457226827806
     E_Harris            -3043.842334847709           -41413.599567552810
      E_Fermi               +0.868911934281              +11.822153366429

 PW ALGORITHM --------------- ION=   1  ELEC=  10--------------------------------
  K-point    CG iter num      Time(Sec)
        1       2.192308       0.659363
        2       2.523077       0.774797
        3       2.430769       0.754216
        4       2.330769       0.734099
        5       2.261538       0.671639
        6       2.253846       0.696532
        7       2.500000       0.788391
        8       2.923077       0.967211
        9       2.400000       0.742489
       10       2.307692       0.704949
       11       2.253846       0.681385
       12       2.246154       0.711789
       13       2.323077       0.695647
       14       2.407692       0.762903
       15       3.138462       1.047551
       16       2.392308       0.741670
       17       2.407692       0.747684
       18       2.800000       0.914273
       19       2.746154       0.866622
       20       2.638462       0.825273
       21       3.007692       0.986849
       22       2.876923       0.937586
       23       2.338462       0.717104
       24       2.292308       0.701705
       25       2.700000       0.875105
       26       2.500000       0.768344
       27       2.723077       0.863850
       28       2.253846       0.712052
       29       2.238462       0.660361
       30       2.646154       0.854308
       31       2.238462       0.684987

 Density error is 9.661193135798
                          Error Threshold = 0.000194569546

       Energy                       Rydberg                            eV
   E_KohnSham            -3043.717252461950           -41411.897734387043
     E_Harris            -3043.846916539177           -41413.661904663240
      E_Fermi               +0.867881060334              +11.808127606819

 PW ALGORITHM --------------- ION=   1  ELEC=  11--------------------------------
  K-point    CG iter num      Time(Sec)
        1       2.207692       0.689787
        2       2.461538       0.753495
        3       2.415385       0.747355
        4       2.315385       0.721706
        5       2.215385       0.651425
        6       2.184615       0.682690
        7       2.646154       0.838859
        8       2.861538       0.923936
        9       2.392308       0.763670
       10       2.276923       0.691349
       11       2.215385       0.707259
       12       2.215385       0.677240
       13       2.261538       0.679661
       14       2.400000       0.767569
       15       2.830769       0.902901
       16       2.361538       0.733179
       17       2.376923       0.766592
       18       2.776923       0.877029
       19       2.669231       0.840419
       20       2.700000       0.878081
       21       2.630769       0.842468
       22       2.753846       0.876093
       23       2.300000       0.706609
       24       2.276923       0.699171
       25       2.769231       0.878137
       26       2.423077       0.761595
       27       2.676923       0.848604
       28       2.215385       0.662124
       29       2.230769       0.709282
       30       2.661538       0.831059
       31       2.192308       0.669984

 Density error is 3.156736505033
                          Error Threshold = 0.000194569546

       Energy                       Rydberg                            eV
   E_KohnSham            -3043.763238213008           -41412.523402628241
     E_Harris            -3043.797413586418           -41412.988382437899
      E_Fermi               +0.869689355570              +11.832730725696

 PW ALGORITHM --------------- ION=   1  ELEC=  12--------------------------------
  K-point    CG iter num      Time(Sec)
        1       2.115385       0.602819
        2       2.253846       0.704373
        3       2.184615       0.659925
        4       2.169231       0.647805
        5       2.115385       0.631422
        6       2.130769       0.637265
        7       2.238462       0.695726
        8       2.415385       0.745396
        9       2.161538       0.679461
       10       2.130769       0.628160
       11       2.107692       0.656070
       12       2.115385       0.636867
       13       2.146154       0.648776
       14       2.153846       0.651504
       15       2.461538       0.769174
       16       2.153846       0.681748
       17       2.123077       0.626230
       18       2.276923       0.727850
       19       2.269231       0.689150
       20       2.338462       0.728635
       21       2.253846       0.689047
       22       2.292308       0.693338
       23       2.146154       0.675991
       24       2.130769       0.618185
       25       2.292308       0.729019
       26       2.123077       0.631761
       27       2.207692       0.679251
       28       2.130769       0.646894
       29       2.123077       0.644750
       30       2.246154       0.685207
       31       2.138462       0.643325

 Density error is 0.430427230315
                          Error Threshold = 0.000194569546

       Energy                       Rydberg                            eV
   E_KohnSham            -3043.761802499931           -41412.503868749707
     E_Harris            -3043.779835776411           -41412.749224063446
      E_Fermi               +0.870497846392              +11.843730807654

 PW ALGORITHM --------------- ION=   1  ELEC=  13--------------------------------
  K-point    CG iter num      Time(Sec)
        1       2.292308       0.691713
        2       2.746154       0.864365
        3       2.423077       0.778583
        4       2.238462       0.664591
        5       2.238462       0.690540
        6       2.192308       0.656466
        7       2.523077       0.799550
        8       3.161538       1.065757
        9       2.361538       0.749332
       10       2.238462       0.670398
       11       2.215385       0.702655
       12       2.215385       0.667460
       13       2.238462       0.694231
       14       2.369231       0.729492
       15       3.292308       1.108397
       16       2.400000       0.751582
       17       2.376923       0.765740
       18       3.092308       0.998810
       19       2.884615       0.938007
       20       2.761538       0.892044
       21       2.684615       0.874824
       22       2.792308       0.877201
       23       2.276923       0.700519
       24       2.238462       0.767711
       25       2.776923       0.882665
       26       2.884615       0.922869
       27       2.492308       0.799972
       28       2.223077       0.675258
       29       2.207692       0.673600
       30       2.823077       0.924860
       31       2.192308       0.658686

 Density error is 13.438005448966
                          Error Threshold = 0.000177862492

       Energy                       Rydberg                            eV
   E_KohnSham            -3043.704117708162           -41411.719026893712
     E_Harris            -3043.833559761388           -41413.480176378398
      E_Fermi               +0.867315380981              +11.800431144380

 PW ALGORITHM --------------- ION=   1  ELEC=  14--------------------------------
  K-point    CG iter num      Time(Sec)
        1       2.207692       0.671627
        2       2.761538       0.874814
        3       2.369231       0.741151
        4       2.238462       0.674121
        5       2.184615       0.660698
        6       2.215385       0.679698
        7       2.769231       0.904482
        8       3.261538       1.088020
        9       2.361538       0.746767
       10       2.253846       0.685873
       11       2.207692       0.675632
       12       2.207692       0.687517
       13       2.238462       0.671691
       14       2.376923       0.764531
       15       3.207692       1.071991
       16       2.423077       0.751435
       17       2.384615       0.755700
       18       3.107692       1.033877
       19       3.207692       1.068434
       20       2.884615       0.920372
       21       2.930769       0.949824
       22       2.953846       0.956664
       23       2.246154       0.711847
       24       2.238462       0.663515
       25       2.738462       0.892697
       26       2.500000       0.797696
       27       2.584615       0.818992
       28       2.200000       0.686667
       29       2.215385       0.674732
       30       2.676923       0.841606
       31       2.207692       0.704889

 Density error is 1.984964030393
                          Error Threshold = 0.000177862492

       Energy                       Rydberg                            eV
   E_KohnSham            -3043.765935880972           -41412.560106283869
     E_Harris            -3043.785687176554           -41412.828836446672
      E_Fermi               +0.870230856501              +11.840098223838

 PW ALGORITHM --------------- ION=   1  ELEC=  15--------------------------------
  K-point    CG iter num      Time(Sec)
        1       2.207692       0.663197
        2       2.607692       0.833148
        3       2.238462       0.655814
        4       2.153846       0.661876
        5       2.092308       0.612311
        6       2.107692       0.643860
        7       2.315385       0.713465
        8       2.769231       0.891214
        9       2.184615       0.693944
       10       2.138462       0.628499
       11       2.100000       0.650587
       12       2.100000       0.627016
       13       2.138462       0.649110
       14       2.184615       0.665160
       15       3.176923       1.060116
       16       2.261538       0.709456
       17       2.200000       0.674033
       18       2.538462       0.799638
       19       2.338462       0.745508
       20       2.507692       0.779248
       21       2.438462       0.756812
       22       2.284615       0.713248
       23       2.161538       0.642809
       24       2.153846       0.679318
       25       2.430769       0.748526
       26       2.323077       0.725197
       27       2.446154       0.769517
       28       2.123077       0.630948
       29       2.107692       0.660643
       30       2.423077       0.738774
       31       2.123077       0.663260

 Density error is 6.382853549462
                          Error Threshold = 0.000177862492

       Energy                       Rydberg                            eV
   E_KohnSham            -3043.711816497739           -41411.823774299657
     E_Harris            -3043.801204856946           -41413.039965319738
      E_Fermi               +0.869373239774              +11.828429749645

 PW ALGORITHM --------------- ION=   1  ELEC=  16--------------------------------
  K-point    CG iter num      Time(Sec)
        1       2.284615       0.682041
        2       3.038462       1.037720
        3       2.461538       0.769078
        4       2.261538       0.679466
        5       2.200000       0.690348
        6       2.207692       0.636029
        7       2.761538       0.914612
        8       3.407692       1.160480
        9       2.369231       0.733734
       10       2.238462       0.681072
       11       2.200000       0.700129
       12       2.200000       0.648933
       13       2.230769       0.707243
       14       2.384615       0.737918
       15       3.430769       1.164632
       16       2.576923       0.817100
       17       2.423077       0.786652
       18       3.523077       1.195525
       19       2.907692       0.927726
       20       3.253846       1.089825
       21       3.061538       0.993963
       22       2.923077       0.955770
       23       2.284615       0.723585
       24       2.253846       0.670760
       25       2.992308       0.989828
       26       2.769231       0.913347
       27       2.784615       0.884071
       28       2.184615       0.663930
       29       2.207692       0.698018
       30       2.946154       0.949126
       31       2.200000       0.672607

 Density error is 12.908151039734
                          Error Threshold = 0.000177862492

       Energy                       Rydberg                            eV
   E_KohnSham            -3043.713955170534           -41411.852872435826
     E_Harris            -3043.829649154774           -41413.426969845808
      E_Fermi               +0.867279208671              +11.799938994855

 PW ALGORITHM --------------- ION=   1  ELEC=  17--------------------------------
  K-point    CG iter num      Time(Sec)
        1       2.346154       0.705855
        2       3.061538       0.988650
        3       2.646154       0.867307
        4       2.323077       0.702853
        5       2.261538       0.688435
        6       2.261538       0.703947
        7       2.838462       0.932774
        8       3.561538       1.214874
        9       2.507692       0.784167
       10       2.292308       0.732225
       11       2.253846       0.669723
       12       2.253846       0.716451
       13       2.300000       0.704536
       14       2.492308       0.780357
       15       3.730769       1.276098
       16       2.630769       0.867284
       17       2.553846       0.807508
       18       3.730769       1.276461
       19       3.461538       1.153511
       20       3.423077       1.151630
       21       3.438462       1.155815
       22       3.561538       1.195963
       23       2.400000       0.748272
       24       2.338462       0.750858
       25       3.269231       1.079223
       26       2.938462       0.959041
       27       2.946154       0.946559
       28       2.269231       0.722570
       29       2.223077       0.677118
       30       2.900000       0.930044
       31       2.269231       0.728943

 Density error is 12.994603892675
                          Error Threshold = 0.000177862492

       Energy                       Rydberg                            eV
   E_KohnSham            -3043.706571451098           -41411.752411779060
     E_Harris            -3043.834088163565           -41413.487365658846
      E_Fermi               +0.867728553516              +11.806052645114

 PW ALGORITHM --------------- ION=   1  ELEC=  18--------------------------------
  K-point    CG iter num      Time(Sec)
        1       2.223077       0.671993
        2       2.753846       0.892077
        3       2.476923       0.772567
        4       2.253846       0.687270
        5       2.207692       0.728886
        6       2.207692       0.656559
        7       2.507692       0.821680
        8       2.984615       0.991824
        9       2.376923       0.720637
       10       2.238462       0.706618
       11       2.200000       0.672982
       12       2.207692       0.677638
       13       2.238462       0.687271
       14       2.369231       0.732398
       15       2.969231       0.991963
       16       2.515385       0.821001
       17       2.369231       0.721758
       18       3.069231       1.015442
       19       2.984615       0.988393
       20       2.961538       0.985735
       21       2.876923       0.918424
       22       3.115385       1.028201
       23       2.253846       0.699361
       24       2.253846       0.689579
       25       2.976923       0.982422
       26       2.600000       0.821417
       27       2.523077       0.820413
       28       2.192308       0.642713
       29       2.215385       0.700537
       30       2.907692       0.948235
       31       2.215385       0.658986

 Density error is 1.087347267454
                          Error Threshold = 0.000177862492

       Energy                       Rydberg                            eV
   E_KohnSham            -3043.769388123058           -41412.607076447115
     E_Harris            -3043.784140943707           -41412.807798869515
      E_Fermi               +0.869955924068              +11.836357576182

 PW ALGORITHM --------------- ION=   1  ELEC=  19--------------------------------
  K-point    CG iter num      Time(Sec)
        1       2.115385       0.631817
        2       2.146154       0.640300
        3       2.100000       0.631290
        4       2.076923       0.615720
        5       2.076923       0.622654
        6       2.061538       0.609357
        7       2.215385       0.699139
        8       2.415385       0.748199
        9       2.061538       0.644823
       10       2.069231       0.606889
       11       2.046154       0.638634
       12       2.046154       0.608036
       13       2.053846       0.624126
       14       2.076923       0.624629
       15       2.300000       0.719285
       16       2.107692       0.642214
       17       2.092308       0.634913
       18       2.223077       0.695593
       19       2.153846       0.640894
       20       2.092308       0.662734
       21       2.176923       0.631226
       22       2.123077       0.666549
       23       2.084615       0.615879
       24       2.061538       0.640100
       25       2.253846       0.688469
       26       2.130769       0.644795
       27       2.130769       0.643581
       28       2.076923       0.627171
       29       2.084615       0.632330
       30       2.115385       0.632066
       31       2.061538       0.623777

 Density error is 0.045769653640
                          Error Threshold = 0.000177862492

       Energy                       Rydberg                            eV
   E_KohnSham            -3043.775992958062           -41412.696939837522
     E_Harris            -3043.778325046880           -41412.728669533681
      E_Fermi               +0.870028118097              +11.837339826335

 PW ALGORITHM --------------- ION=   1  ELEC=  20--------------------------------
  K-point    CG iter num      Time(Sec)
        1       2.376923       0.727800
        2       2.615385       0.819335
        3       2.423077       0.743199
        4       2.346154       0.735602
        5       2.292308       0.693599
        6       2.238462       0.676383
        7       2.584615       0.849035
        8       3.238462       1.081009
        9       2.400000       0.738386
       10       2.300000       0.733736
       11       2.269231       0.693841
       12       2.269231       0.700307
       13       2.292308       0.701630
       14       2.392308       0.736965
       15       3.276923       1.108291
       16       2.423077       0.790011
       17       2.415385       0.749239
       18       2.869231       0.976729
       19       2.776923       0.908785
       20       2.815385       0.893061
       21       2.615385       0.819645
       22       2.676923       0.861182
       23       2.330769       0.717792
       24       2.315385       0.708339
       25       2.769231       0.910715
       26       2.592308       0.813623
       27       2.769231       0.888621
       28       2.292308       0.715084
       29       2.269231       0.700132
       30       2.800000       0.894246
       31       2.238462       0.710698

 Density error is 0.130284709788
                          Error Threshold = 0.000018913080

       Energy                       Rydberg                            eV
   E_KohnSham            -3043.777426401492           -41412.716442835925
     E_Harris            -3043.780718558894           -41412.761234935300
      E_Fermi               +0.869767849281              +11.833798687432

 PW ALGORITHM --------------- ION=   1  ELEC=  21--------------------------------
  K-point    CG iter num      Time(Sec)
        1       2.292308       0.684800
        2       2.300000       0.727225
        3       2.223077       0.665998
        4       2.169231       0.664431
        5       2.130769       0.635815
        6       2.146154       0.643188
        7       2.284615       0.706171
        8       2.730769       0.883078
        9       2.192308       0.693447
       10       2.153846       0.648955
       11       2.161538       0.656964
       12       2.153846       0.654835
       13       2.161538       0.654064
       14       2.200000       0.670089
       15       2.800000       0.912791
       16       2.215385       0.691119
       17       2.215385       0.681871
       18       2.446154       0.761417
       19       2.384615       0.761469
       20       2.415385       0.743752
       21       2.330769       0.725551
       22       2.423077       0.751290
       23       2.169231       0.650656
       24       2.176923       0.690428
       25       2.392308       0.728386
       26       2.300000       0.721425
       27       2.307692       0.707476
       28       2.130769       0.647997
       29       2.138462       0.656462
       30       2.584615       0.811279
       31       2.138462       0.671397

 Density error is 0.039313844368
                          Error Threshold = 0.000018913080

       Energy                       Rydberg                            eV
   E_KohnSham            -3043.778982398268           -41412.737613258156
     E_Harris            -3043.780239291682           -41412.754714170362
      E_Fermi               +0.869850216770              +11.834919354611

 PW ALGORITHM --------------- ION=   1  ELEC=  22--------------------------------
  K-point    CG iter num      Time(Sec)
        1       2.207692       0.658841
        2       2.407692       0.764908
        3       2.230769       0.670384
        4       2.153846       0.661833
        5       2.146154       0.642367
        6       2.146154       0.642601
        7       2.392308       0.746718
        8       2.715385       0.878470
        9       2.207692       0.694940
       10       2.161538       0.653495
       11       2.161538       0.658038
       12       2.153846       0.656197
       13       2.153846       0.655276
       14       2.192308       0.682919
       15       2.815385       0.918362
       16       2.253846       0.695903
       17       2.207692       0.679826
       18       2.669231       0.847297
       19       2.415385       0.773379
       20       2.584615       0.816177
       21       2.384615       0.735485
       22       2.369231       0.757083
       23       2.184615       0.660803
       24       2.161538       0.659281
       25       2.361538       0.730319
       26       2.353846       0.729377
       27       2.330769       0.745921
       28       2.169231       0.643838
       29       2.138462       0.673112
       30       2.392308       0.735679
       31       2.153846       0.656681

 Density error is 1.197101075700
                          Error Threshold = 0.000016245390

       Energy                       Rydberg                            eV
   E_KohnSham            -3043.770550874623           -41412.622896493755
     E_Harris            -3043.783161637771           -41412.794474728697
      E_Fermi               +0.870083833245              +11.838097869817

 PW ALGORITHM --------------- ION=   1  ELEC=  23--------------------------------
  K-point    CG iter num      Time(Sec)
        1       2.276923       0.681680
        2       2.807692       0.889994
        3       2.284615       0.727006
        4       2.207692       0.633825
        5       2.192308       0.685476
        6       2.238462       0.674425
        7       2.430769       0.762420
        8       3.500000       1.192807
        9       2.261538       0.699021
       10       2.184615       0.657233
       11       2.207692       0.702546
       12       2.215385       0.654894
       13       2.192308       0.687017
       14       2.246154       0.686246
       15       3.323077       1.116364
       16       2.330769       0.738144
       17       2.284615       0.705330
       18       3.007692       0.999192
       19       2.523077       0.790453
       20       2.715385       0.890680
       21       2.776923       0.882681
       22       2.569231       0.801405
       23       2.223077       0.712353
       24       2.207692       0.666070
       25       2.507692       0.793674
       26       2.738462       0.899376
       27       2.615385       0.824752
       28       2.200000       0.672484
       29       2.215385       0.677496
       30       2.823077       0.914463
       31       2.223077       0.700639

 Density error is 0.900269475875
                          Error Threshold = 0.000016245390

       Energy                       Rydberg                            eV
   E_KohnSham            -3043.774425775685           -41412.675617227389
     E_Harris            -3043.783107698373           -41412.793740845540
      E_Fermi               +0.869499284136              +11.830144671175

 PW ALGORITHM --------------- ION=   1  ELEC=  24--------------------------------
  K-point    CG iter num      Time(Sec)
        1       2.369231       0.693774
        2       2.630769       0.846997
        3       2.292308       0.701069
        4       2.184615       0.656346
        5       2.161538       0.656851
        6       2.176923       0.647539
        7       2.423077       0.787831
        8       3.146154       1.051968
        9       2.238462       0.666378
       10       2.161538       0.680704
       11       2.176923       0.653421
       12       2.176923       0.672167
       13       2.161538       0.654893
       14       2.238462       0.687287
       15       3.361538       1.129676
       16       2.300000       0.713180
       17       2.261538       0.694403
       18       2.700000       0.887705
       19       2.453846       0.759401
       20       2.576923       0.809153
       21       2.500000       0.812821
       22       2.492308       0.768640
       23       2.184615       0.668204
       24       2.184615       0.672760
       25       2.546154       0.797443
       26       2.453846       0.787919
       27       2.592308       0.825215
       28       2.176923       0.651879
       29       2.184615       0.698695
       30       2.646154       0.829491
       31       2.161538       0.658408

 Density error is 1.143563801653
                          Error Threshold = 0.000016245390

       Energy                       Rydberg                            eV
   E_KohnSham            -3043.773936003169           -41412.668953530447
     E_Harris            -3043.782842470766           -41412.790132238813
      E_Fermi               +0.869430044030              +11.829202611197

 PW ALGORITHM --------------- ION=   1  ELEC=  25--------------------------------
  K-point    CG iter num      Time(Sec)
        1       2.292308       0.671118
        2       2.700000       0.865657
        3       2.192308       0.665808
        4       2.153846       0.638538
        5       2.092308       0.638716
        6       2.100000       0.614270
        7       2.438462       0.793356
        8       3.284615       1.106748
        9       2.176923       0.631891
       10       2.107692       0.686564
       11       2.100000       0.605149
       12       2.100000       0.659794
       13       2.107692       0.617536
       14       2.184615       0.682617
       15       3.230769       1.087772
       16       2.253846       0.685720
       17       2.192308       0.681698
       18       2.615385       0.829419
       19       2.369231       0.725959
       20       2.492308       0.808280
       21       2.446154       0.759651
       22       2.415385       0.747586
       23       2.153846       0.681739
       24       2.107692       0.608264
       25       2.492308       0.806199
       26       2.446154       0.759293
       27       2.569231       0.810568
       28       2.092308       0.664723
       29       2.100000       0.605080
       30       2.669231       0.869019
       31       2.107692       0.637726

 Density error is 0.499117849885
                          Error Threshold = 0.000016245390

       Energy                       Rydberg                            eV
   E_KohnSham            -3043.777147042262           -41412.712641958606
     E_Harris            -3043.781136113644           -41412.766916059132
      E_Fermi               +0.869686444277              +11.832691115525

 PW ALGORITHM --------------- ION=   1  ELEC=  26--------------------------------
  K-point    CG iter num      Time(Sec)
        1       2.361538       0.748070
        2       2.400000       0.734851
        3       2.146154       0.649909
        4       2.107692       0.626591
        5       2.092308       0.625310
        6       2.107692       0.629275
        7       2.307692       0.712141
        8       2.761538       0.917795
        9       2.153846       0.652482
       10       2.100000       0.632880
       11       2.092308       0.634430
       12       2.092308       0.632021
       13       2.100000       0.630357
       14       2.146154       0.646205
       15       2.923077       0.969958
       16       2.184615       0.671472
       17       2.169231       0.663012
       18       2.346154       0.745958
       19       2.261538       0.677341
       20       2.430769       0.784020
       21       2.569231       0.806921
       22       2.284615       0.694932
       23       2.123077       0.670463
       24       2.107692       0.612316
       25       2.376923       0.767550
       26       2.246154       0.683464
       27       2.261538       0.692971
       28       2.092308       0.636355
       29       2.100000       0.639094
       30       2.376923       0.757250
       31       2.107692       0.617150

 Density error is 0.179007304799
                          Error Threshold = 0.000016245390

       Energy                       Rydberg                            eV
   E_KohnSham            -3043.778230663309           -41412.727385379330
     E_Harris            -3043.780419736662           -41412.757169250268
      E_Fermi               +0.869968948497              +11.836534782625

 PW ALGORITHM --------------- ION=   1  ELEC=  27--------------------------------
  K-point    CG iter num      Time(Sec)
        1       2.246154       0.679250
        2       2.200000       0.662483
        3       2.084615       0.629647
        4       2.076923       0.611578
        5       2.061538       0.623225
        6       2.069231       0.605318
        7       2.169231       0.689323
        8       2.530769       0.796370
        9       2.061538       0.631013
       10       2.076923       0.621808
       11       2.069231       0.621907
       12       2.069231       0.620533
       13       2.076923       0.622558
       14       2.084615       0.630211
       15       2.538462       0.798104
       16       2.084615       0.656603
       17       2.084615       0.599238
       18       2.338462       0.756290
       19       2.100000       0.625046
       20       2.246154       0.694498
       21       2.176923       0.659786
       22       2.146154       0.646757
       23       2.076923       0.628649
       24       2.076923       0.623349
       25       2.146154       0.652793
       26       2.115385       0.627840
       27       2.184615       0.690473
       28       2.061538       0.594794
       29       2.076923       0.716903
       30       2.215385       0.657906
       31       2.069231       0.645378

 Density error is 0.031667101741
                          Error Threshold = 0.000016245390

       Energy                       Rydberg                            eV
   E_KohnSham            -3043.779551978198           -41412.745362790673
     E_Harris            -3043.779620329898           -41412.746292763251
      E_Fermi               +0.869855511307              +11.834991390478

 PW ALGORITHM --------------- ION=   1  ELEC=  28--------------------------------
  K-point    CG iter num      Time(Sec)
        1       2.000000       0.579859
        2       2.000000       0.587907
        3       2.000000       0.592608
        4       2.000000       0.586162
        5       2.000000       0.589295
        6       2.000000       0.592139
        7       2.000000       0.602406
        8       2.000000       0.603323
        9       2.000000       0.596614
       10       2.000000       0.591410
       11       2.000000       0.596686
       12       2.000000       0.598465
       13       2.000000       0.594488
       14       2.000000       0.595303
       15       2.000000       0.597409
       16       2.000000       0.598975
       17       2.000000       0.600961
       18       2.000000       0.600866
       19       2.000000       0.594476
       20       2.000000       0.592426
       21       2.000000       0.594183
       22       2.000000       0.594325
       23       2.000000       0.598357
       24       2.000000       0.596708
       25       2.000000       0.596147
       26       2.000000       0.593398
       27       2.000000       0.595373
       28       2.000000       0.600931
       29       2.000000       0.594695
       30       2.000000       0.587103
       31       2.000000       0.596899

 Density error is 0.023983759160
[...]
      89       4.148673       0.040000
      90       4.194919       0.040000
      91       4.216854       0.040000
      92       4.351724       0.040000
      93       4.404111       0.040000
      94       4.659159       0.040000
      95       4.664955       0.040000
      96       5.048142       0.040000
      97       5.060108       0.040000
      98       5.533930       0.040000
      99       5.579247       0.040000
     100       6.147555       0.040000
     101       6.185614       0.040000
     102       6.877635       0.040000
     103       6.878313       0.040000
     104       7.679319       0.040000
     105       7.688151       0.040000
     106       8.512325       0.040000
     107       8.556178       0.040000
     108       8.915465       0.040000
     109       8.981368       0.040000
     110       8.991424       0.040000
     111       9.140992       0.040000
     112       9.172569       0.040000
     113       9.325756       0.040000
     114       9.386690       0.040000
     115       9.515595       0.040000
     116       9.548833       0.040000
     117       9.952457       0.040000
     118       9.957648       0.040000
     119      10.437314       0.040000
     120      10.507999       0.040000
     121      10.713193       0.040000
     122      10.959855       0.040000
     123      11.064880       0.040000
     124      11.366389       0.040000
     125      11.734328       0.036893
     126      11.827651       0.021751
     127      12.251197       0.000000
     128      12.341903       0.000000
     129      12.543578       0.000000
     130      12.588330       0.000000

 29/31 kpoint (Cartesian) = 0.848528 0.326599 0.000000 (677 pws)
       1     -91.689813       0.080000
       2     -91.688790       0.080000
       3     -91.682478       0.080000
       4     -91.682042       0.080000
       5     -91.666811       0.080000
       6     -91.664670       0.080000
       7     -91.661029       0.080000
       8     -91.660044       0.080000
       9     -91.656033       0.080000
      10     -91.654223       0.080000
      11     -91.652188       0.080000
      12     -91.651705       0.080000
      13     -91.649195       0.080000
      14     -91.648976       0.080000
      15     -91.644468       0.080000
      16     -91.641469       0.080000
      17     -91.637566       0.080000
      18     -91.636691       0.080000
      19     -91.629771       0.080000
      20     -91.627553       0.080000
      21     -91.611304       0.080000
      22     -91.609477       0.080000
      23     -53.303784       0.080000
      24     -53.303646       0.080000
      25     -53.297155       0.080000
      26     -53.296812       0.080000
      27     -53.294132       0.080000
      28     -53.293887       0.080000
      29     -53.288075       0.080000
      30     -53.287941       0.080000
      31     -53.286471       0.080000
      32     -53.286082       0.080000
      33     -53.281608       0.080000
      34     -53.281476       0.080000
      35     -53.281278       0.080000
      36     -53.281221       0.080000
      37     -53.276002       0.080000
      38     -53.275940       0.080000
      39     -53.272186       0.080000
      40     -53.272089       0.080000
      41     -53.270105       0.080000
      42     -53.269911       0.080000
      43     -53.267705       0.080000
      44     -53.267576       0.080000
      45     -53.267356       0.080000
      46     -53.266974       0.080000
      47     -53.266852       0.080000
      48     -53.266679       0.080000
      49     -53.266144       0.080000
      50     -53.265825       0.080000
      51     -53.265549       0.080000
      52     -53.265062       0.080000
      53     -53.264924       0.080000
      54     -53.264882       0.080000
      55     -53.260485       0.080000
      56     -53.260264       0.080000
      57     -53.259053       0.080000
      58     -53.258731       0.080000
      59     -53.257878       0.080000
      60     -53.257815       0.080000
      61     -53.257465       0.080000
      62     -53.257053       0.080000
      63     -53.255825       0.080000
      64     -53.255378       0.080000
      65     -53.255270       0.080000
      66     -53.254988       0.080000
      67     -53.253931       0.080000
      68     -53.253847       0.080000
      69     -53.253147       0.080000
      70     -53.253053       0.080000
      71     -53.246422       0.080000
      72     -53.246380       0.080000
      73     -53.246204       0.080000
      74     -53.245816       0.080000
      75     -53.244931       0.080000
      76     -53.244693       0.080000
      77     -53.241145       0.080000
      78     -53.240818       0.080000
      79     -53.239843       0.080000
      80     -53.239490       0.080000
      81     -53.236776       0.080000
      82     -53.236626       0.080000
      83     -53.232654       0.080000
      84     -53.230044       0.080000
      85     -53.219885       0.080000
      86     -53.219355       0.080000
      87     -53.216508       0.080000
      88     -53.216389       0.080000
      89       5.360138       0.080000
      90       5.403991       0.080000
      91       5.426344       0.080000
      92       5.559743       0.080000
      93       5.611981       0.080000
      94       5.862240       0.080000
      95       5.868343       0.080000
      96       6.243336       0.080000
      97       6.257133       0.080000
      98       6.718586       0.080000
      99       6.763042       0.080000
     100       7.301813       0.080000
     101       7.341999       0.080000
     102       7.703344       0.080000
     103       7.768135       0.080000
     104       7.772026       0.080000
     105       7.942559       0.080000
     106       7.969195       0.080000
     107       8.065726       0.080000
     108       8.095368       0.080000
     109       8.241905       0.080000
     110       8.245921       0.080000
     111       8.605267       0.080000
     112       8.621498       0.080000
     113       8.832912       0.080000
     114       8.843711       0.080000
     115       9.064440       0.080000
     116       9.086126       0.080000
     117       9.628750       0.080000
     118       9.641634       0.080000
     119      10.142158       0.080000
     120      10.162000       0.080000
     121      10.561622       0.080000
     122      10.583120       0.080000
     123      10.935913       0.080000
     124      10.948255       0.080000
     125      11.426589       0.080000
     126      11.446769       0.080000
     127      11.842225       0.036981
     128      12.211755       0.000000
     129      12.303732       0.000000
     130      12.416033       0.000000

 30/31 kpoint (Cartesian) = 0.565685 0.653197 0.000000 (679 pws)
       1     -91.678251       0.040000
       2     -91.677522       0.040000
       3     -91.671045       0.040000
       4     -91.668423       0.040000
       5     -91.660063       0.040000
       6     -91.657988       0.040000
       7     -91.651411       0.040000
       8     -91.649660       0.040000
       9     -91.646486       0.040000
      10     -91.646101       0.040000
      11     -91.644180       0.040000
      12     -91.642679       0.040000
      13     -91.638878       0.040000
      14     -91.636212       0.040000
      15     -91.635442       0.040000
      16     -91.634089       0.040000
      17     -91.627927       0.040000
      18     -91.627341       0.040000
      19     -91.625183       0.040000
      20     -91.623440       0.040000
      21     -91.603653       0.040000
      22     -91.601360       0.040000
      23     -53.301781       0.040000
      24     -53.301651       0.040000
      25     -53.295096       0.040000
      26     -53.294771       0.040000
      27     -53.293358       0.040000
      28     -53.293140       0.040000
      29     -53.290000       0.040000
      30     -53.289889       0.040000
      31     -53.285591       0.040000
      32     -53.285125       0.040000
      33     -53.283527       0.040000
      34     -53.283219       0.040000
      35     -53.279762       0.040000
      36     -53.279112       0.040000
      37     -53.275481       0.040000
      38     -53.274846       0.040000
      39     -53.270656       0.040000
      40     -53.270291       0.040000
      41     -53.268566       0.040000
      42     -53.268276       0.040000
      43     -53.268201       0.040000
      44     -53.268056       0.040000
      45     -53.266184       0.040000
      46     -53.265891       0.040000
      47     -53.265732       0.040000
      48     -53.265602       0.040000
      49     -53.264901       0.040000
      50     -53.264619       0.040000
      51     -53.263931       0.040000
      52     -53.263760       0.040000
      53     -53.263485       0.040000
      54     -53.263072       0.040000
      55     -53.260609       0.040000
      56     -53.260476       0.040000
      57     -53.258970       0.040000
      58     -53.258724       0.040000
      59     -53.257862       0.040000
      60     -53.257309       0.040000
      61     -53.257069       0.040000
      62     -53.256895       0.040000
      63     -53.256515       0.040000
      64     -53.256285       0.040000
      65     -53.255765       0.040000
      66     -53.255576       0.040000
      67     -53.253759       0.040000
      68     -53.253533       0.040000
      69     -53.253135       0.040000
      70     -53.252745       0.040000
      71     -53.248347       0.040000
      72     -53.248223       0.040000
      73     -53.247899       0.040000
      74     -53.247656       0.040000
      75     -53.246672       0.040000
      76     -53.246361       0.040000
      77     -53.241345       0.040000
      78     -53.241069       0.040000
      79     -53.240206       0.040000
      80     -53.239845       0.040000
      81     -53.237876       0.040000
      82     -53.237704       0.040000
      83     -53.230690       0.040000
      84     -53.228098       0.040000
      85     -53.221268       0.040000
      86     -53.219390       0.040000
      87     -53.218436       0.040000
      88     -53.215883       0.040000
      89       7.011078       0.040000
      90       7.053803       0.040000
      91       7.063698       0.040000
      92       7.068478       0.040000
      93       7.092019       0.040000
      94       7.128978       0.040000
      95       7.203510       0.040000
      96       7.249826       0.040000
      97       7.251123       0.040000
      98       7.304438       0.040000
      99       7.475626       0.040000
     100       7.501708       0.040000
     101       7.528918       0.040000
     102       7.541991       0.040000
     103       7.801309       0.040000
     104       7.845163       0.040000
     105       7.998368       0.040000
     106       8.017391       0.040000
     107       8.338322       0.040000
     108       8.341483       0.040000
     109       8.410797       0.040000
     110       8.482428       0.040000
     111       8.882432       0.040000
     112       8.944048       0.040000
     113       9.057983       0.040000
     114       9.062084       0.040000
     115       9.436692       0.040000
     116       9.455805       0.040000
     117       9.886873       0.040000
     118       9.926528       0.040000
     119      10.525579       0.040000
     120      10.571775       0.040000
     121      10.728556       0.040000
     122      10.806203       0.040000
     123      11.241068       0.040000
     124      11.348411       0.040000
     125      11.382886       0.040000
     126      11.525508       0.040000
     127      11.728517       0.037340
     128      11.744923       0.035933
     129      11.831439       0.020905
     130      11.903089       0.006846

 31/31 kpoint (Cartesian) = 0.707107 0.408248 0.000000 (675 pws)
       1     -91.693102       0.020000
       2     -91.689416       0.020000
       3     -91.684664       0.020000
       4     -91.680418       0.020000
       5     -91.673443       0.020000
       6     -91.671323       0.020000
       7     -91.665915       0.020000
       8     -91.662638       0.020000
       9     -91.659169       0.020000
      10     -91.658694       0.020000
      11     -91.658112       0.020000
      12     -91.657556       0.020000
      13     -91.655422       0.020000
      14     -91.651604       0.020000
      15     -91.649143       0.020000
      16     -91.642184       0.020000
      17     -91.642004       0.020000
      18     -91.639136       0.020000
      19     -91.626712       0.020000
      20     -91.624318       0.020000
      21     -91.615545       0.020000
      22     -91.612704       0.020000
      23     -53.305259       0.020000
      24     -53.305168       0.020000
      25     -53.298632       0.020000
      26     -53.298301       0.020000
      27     -53.294562       0.020000
      28     -53.293635       0.020000
      29     -53.287424       0.020000
      30     -53.287248       0.020000
      31     -53.286872       0.020000
      32     -53.286166       0.020000
      33     -53.282997       0.020000
      34     -53.282814       0.020000
      35     -53.280848       0.020000
      36     -53.280453       0.020000
      37     -53.276504       0.020000
      38     -53.276179       0.020000
      39     -53.273810       0.020000
      40     -53.273645       0.020000
      41     -53.271274       0.020000
      42     -53.271048       0.020000
      43     -53.269032       0.020000
      44     -53.268718       0.020000
      45     -53.268023       0.020000
      46     -53.267892       0.020000
      47     -53.267790       0.020000
      48     -53.267352       0.020000
      49     -53.266572       0.020000
      50     -53.266207       0.020000
      51     -53.266051       0.020000
      52     -53.266013       0.020000
      53     -53.265745       0.020000
      54     -53.265254       0.020000
      55     -53.261067       0.020000
      56     -53.260920       0.020000
      57     -53.259076       0.020000
      58     -53.258457       0.020000
      59     -53.257936       0.020000
      60     -53.257917       0.020000
      61     -53.257892       0.020000
      62     -53.256787       0.020000
      63     -53.255621       0.020000
      64     -53.255376       0.020000
      65     -53.255256       0.020000
      66     -53.255002       0.020000
      67     -53.253672       0.020000
      68     -53.253576       0.020000
      69     -53.253453       0.020000
      70     -53.253153       0.020000
      71     -53.246271       0.020000
      72     -53.245973       0.020000
      73     -53.245347       0.020000
      74     -53.244846       0.020000
      75     -53.243915       0.020000
      76     -53.243633       0.020000
      77     -53.242649       0.020000
      78     -53.241943       0.020000
      79     -53.240201       0.020000
      80     -53.239527       0.020000
      81     -53.235544       0.020000
      82     -53.235302       0.020000
      83     -53.234054       0.020000
      84     -53.231372       0.020000
      85     -53.219898       0.020000
      86     -53.218923       0.020000
      87     -53.216402       0.020000
      88     -53.216103       0.020000
      89       6.291058       0.020000
      90       6.335341       0.020000
      91       6.346700       0.020000
      92       6.349893       0.020000
      93       6.374648       0.020000
      94       6.414619       0.020000
      95       6.489745       0.020000
      96       6.533030       0.020000
      97       6.534317       0.020000
      98       6.594673       0.020000
      99       6.767066       0.020000
     100       6.790409       0.020000
     101       6.823343       0.020000
     102       6.833169       0.020000
     103       7.096731       0.020000
     104       7.141438       0.020000
     105       7.283216       0.020000
     106       7.302535       0.020000
     107       7.633820       0.020000
     108       7.641432       0.020000
     109       7.704620       0.020000
     110       7.774643       0.020000
     111       8.190403       0.020000
     112       8.247779       0.020000
     113       8.361576       0.020000
     114       8.367323       0.020000
     115       8.761279       0.020000
     116       8.770678       0.020000
     117       9.219526       0.020000
     118       9.244144       0.020000
     119       9.899944       0.020000
     120       9.923417       0.020000
     121      10.122835       0.020000
     122      10.164598       0.020000
     123      10.711171       0.020000
     124      10.746372       0.020000
     125      11.048532       0.020000
     126      11.137939       0.020000
     127      11.784424       0.015267
     128      11.849980       0.008386
     129      11.943822       0.001281
     130      12.072229       0.000009



 --------------------------------------------
 !FINAL_ETOT_IS -41412.7456313324801158 eV
 --------------------------------------------






  |CLASS_NAME---------|NAME---------------|TIME(Sec)-----|CALLS----|AVG------|PER%-------
                                      total     1681.91554        17     98.94    100.00%
                 Run_pw     plane_wave_line     1681.90915         1   1681.91    100.00%
                Cell_PW        opt_cells_pw     1681.80661         1   1681.81     99.99%
                    FFT               FFT3D      353.01016   1938719      0.00     20.99%
              Potential            v_of_rho        0.45362        55      0.01      0.03%
                H_XC_pw                v_xc        0.41265        55      0.01      0.02%
               wavefunc             wfcinit        9.59778         1      9.60      0.57%
            pp_cell_vnl              getvnl        2.25705      1736      0.00      0.13%
                 WF_igk              get_sk        0.58796     38874      0.00      0.03%
              Hamilt_PW      diagH_subspace      127.19214      1674      0.08      7.56%
              Hamilt_PW               h_psi     1170.43826    648671      0.00     69.59%
              Hamilt_PW                vloc      413.51200    648671      0.00     24.59%
              Hamilt_PW                 vnl      750.75127    648671      0.00     44.64%
              Hamilt_PW     add_nonlocal_pp      278.66357    648671      0.00     16.57%
              Hamilt_PW                meta        0.16719    648671      0.00      0.01%
                 Hamilt        diagH_LAPACK       10.61410      1674      0.01      0.63%
                   Ions         opt_ions_pw     1672.08525         1   1672.09     99.42%
              Electrons     self_consistent     1672.08521         1   1672.09     99.42%
               Symmetry        rho_symmetry        0.44849        56      0.01      0.03%
              Electrons             c_bands     1557.72716        55     28.32     92.62%
                 Hamilt            diagH_pw     1555.16856      1705      0.91     92.46%
               Diago_CG                diag     1430.26582      1705      0.84     85.04%
                 Charge            sum_band      108.20110        55      1.97      6.43%
                 Charge             rho_mpi        0.40163        55      0.01      0.02%
                 Charge             mix_rho        0.17834        55      0.00      0.01%
 ----------------------------------------------------------------------------------------

 CLASS_NAME---------|NAME---------------|MEMORY(MB)--------
                                         50.1383
             wavefunc                 evc        45.9352
 ----------------------------------------------------------

 Start  Time  : Tue Mar 29 22:17:23 2022
 Finish Time  : Tue Mar 29 22:45:29 2022
 Total  Time  : 0 h 28 mins 6 secs 
