                                                                                     
                             WELCOME TO ABACUS                                       
                                                                                     
               'Atomic-orbital Based Ab-initio Computation at UStc'                  
                                                                                     
                     Website: http://abacus.ustc.edu.cn/                             
                                                                                     
    Version: Parallel, in development
    Processor Number is 1
    Start Time is Fri Sep 10 11:31:50 2021
                                                                                     
 ------------------------------------------------------------------------------------

 READING GENERAL INFORMATION
                           global_out_dir = OUT.blpstest/
                           global_in_card = INPUT
                               pseudo_dir = ./
                              orbital_dir = ./
                              pseudo_type = blps
                                    DRANK = 1
                                    DSIZE = 1
                                   DCOLOR = 1
                                    GRANK = 1
                                    GSIZE = 1




 >>>>>>>>>>>>>>>>>>>>>>>>>>>>>>>>>>>>>>>>>>>>>>>>>>>>>>>>>>>>>>>>>>>>>>
 |                                                                    |
 | Reading atom information in unitcell:                              |
 | From the input file and the structure file we know the number of   |
 | different elments in this unitcell, then we list the detail        |
 | information for each element, especially the zeta and polar atomic |
 | orbital number for each element. The total atom number is counted. |
 | We calculate the nearest atom distance for each atom and show the  |
 | Cartesian and Direct coordinates for each atom. We list the file   |
 | address for atomic orbitals. The volume and the lattice vectors    |
 | in real and reciprocal space is also shown.                        |
 |                                                                    |
 <<<<<<<<<<<<<<<<<<<<<<<<<<<<<<<<<<<<<<<<<<<<<<<<<<<<<<<<<<<<<<<<<<<<<<




 READING UNITCELL INFORMATION
                                    ntype = 1
                 atom label for species 1 = Si
                  lattice constant (Bohr) = 9.1986
              lattice constant (Angstrom) = 4.86769

 READING ATOM TYPE 1
                               atom label = Si
                      L=0, number of zeta = 1
                      L=1, number of zeta = 1
                      L=2, number of zeta = 1
             number of atom for this type = 2
                      start magnetization = FALSE
                      start magnetization = FALSE

                        TOTAL ATOM NUMBER = 2

 DIRECT COORDINATES
         atom                   x                   y                   z                 mag                  vx                  vy                  vz
     taud_Si1                   0                   0                   0                   0                   0                   0                   0
     taud_Si2                0.25                0.25                0.25                   0                   0                   0                   0


                          Volume (Bohr^3) = 194.583
                             Volume (A^3) = 28.8342

 Lattice vectors: (Cartesian coordinate: in unit of a_0)
                   +0                +0.5                +0.5
                 +0.5                  +0                +0.5
                 +0.5                +0.5                  +0
 Reciprocal vectors: (Cartesian coordinate: in unit of 2 pi/a_0)
                   -1                  +1                  +1
                   +1                  -1                  +1
                   +1                  +1                  -1




 >>>>>>>>>>>>>>>>>>>>>>>>>>>>>>>>>>>>>>>>>>>>>>>>>>>>>>>>>>>>>>>>>>>>>>
 |                                                                    |
 | Reading pseudopotentials files:                                    |
 | The pseudopotential file is in UPF format. The 'NC' indicates that |
 | the type of pseudopotential is 'norm conserving'. Functional of    |
 | exchange and correlation is decided by 4 given parameters in UPF   |
 | file.  We also read in the 'core correction' if there exists.      |
 | Also we can read the valence electrons number and the maximal      |
 | angular momentum used in this pseudopotential. We also read in the |
 | trail wave function, trail atomic density and local-pseudopotential|
 | on logrithmic grid. The non-local pseudopotential projector is also|
 | read in if there is any.                                           |
 |                                                                    |
 <<<<<<<<<<<<<<<<<<<<<<<<<<<<<<<<<<<<<<<<<<<<<<<<<<<<<<<<<<<<<<<<<<<<<<




                PAO radial cut off (Bohr) = 16

 Read in pseudopotential file is si.lda.lps
                     pseudopotential type = 
                            functional Ex = LDA
                            functional Ec = LDA
                          functional GCEx = NOGX
                          functional GCEc = NOGC
                 nonlocal core correction = 0
                        valence electrons = 4
                                     lmax = 0
                           number of zeta = 0
                     number of projectors = 0
     initial pseudo atomic orbital number = 0
                                   NLOCAL = 18

 SETUP THE ELECTRONS NUMBER
            electron number of element Si = 4
      total electron number of element Si = 8
                           occupied bands = 4
                                   NBANDS = 12
 DONE : SETUP UNITCELL Time : 0.013942 (SEC)





 >>>>>>>>>>>>>>>>>>>>>>>>>>>>>>>>>>>>>>>>>>>>>>>>>>>>>>>>>>>>>>>>>>>>>>
 |                                                                    |
 | Doing symmetry analysis:                                           |
 | We calculate the norm of 3 vectors and the angles between them,    |
 | the type of Bravais lattice is given. We can judge if the unticell |
 | is a primitive cell. Finally we give the point group operation for |
 | this unitcell. We we use the point group operations to do symmetry |
 | analysis on given k-point mesh and the charge density.             |
 |                                                                    |
 <<<<<<<<<<<<<<<<<<<<<<<<<<<<<<<<<<<<<<<<<<<<<<<<<<<<<<<<<<<<<<<<<<<<<<




 LATTICE VECTORS: (CARTESIAN COORDINATE: IN UNIT OF A0)
                   +0                +0.5                +0.5
                 +0.5                  +0                +0.5
                 +0.5                +0.5                  +0
                       right hand lattice = 1
                                   NORM_A = 0.707107
                                   NORM_B = 0.707107
                                   NORM_C = 0.707107
                           ALPHA (DEGREE) = 60
                           BETA  (DEGREE) = 60
                           GAMMA (DEGREE) = 60
                             BRAVAIS TYPE = 3
                     BRAVAIS LATTICE NAME = 03. Cubic F (face-centered)
 STANDARD LATTICE VECTORS: (CARTESIAN COORDINATE: IN UNIT OF A0)
                   +0                +0.5                +0.5
                 +0.5                  +0                +0.5
                 +0.5                +0.5                  +0
                                    IBRAV = 3
                                  BRAVAIS = FACE CENTERED CUBIC
                       LATTICE CONSTANT A = 4.12311
                                    ibrav = 3
                        ROTATION MATRICES = 48
              PURE POINT GROUP OPERATIONS = 24
                   SPACE GROUP OPERATIONS = 48
                                       C2 = 3
                                       C3 = 8
                                       C4 = 0
                                       C6 = 0
                                       S1 = 6
                                       S3 = 0
                                       S4 = 6
                                       S6 = 0
                              POINT GROUP = T_d
 DONE : SYMMETRY Time : 0.0667601 (SEC)





 >>>>>>>>>>>>>>>>>>>>>>>>>>>>>>>>>>>>>>>>>>>>>>>>>>>>>>>>>>>>>>>>>>>>>>
 |                                                                    |
 | Setup K-points                                                     |
 | We setup the k-points according to input parameters.               |
 | The reduced k-points are set according to symmetry operations.     |
 | We treat the spin as another set of k-points.                      |
 |                                                                    |
 <<<<<<<<<<<<<<<<<<<<<<<<<<<<<<<<<<<<<<<<<<<<<<<<<<<<<<<<<<<<<<<<<<<<<<





 SETUP K-POINTS
                                    nspin = 1
                   Input type of k points = Monkhorst-Pack(Gamma)
                                   nkstot = 1728
                               nkstot_ibz = 72
      IBZ             DirectX             DirectY             DirectZ              Weight    ibz2bz
        1                   0                   0                   0         0.000578704         0
        2            0.916667            0.916667            0.916667          0.00462963         1
        3            0.833333            0.833333            0.833333          0.00462963         2
        4                0.75                0.75                0.75          0.00462963         3
        5            0.666667            0.666667            0.666667          0.00462963         4
        6            0.583333            0.583333            0.583333          0.00462963         5
        7                 0.5                 0.5                 0.5          0.00231481         6
        8                   0            0.916667            0.916667          0.00347222        13
        9            0.916667            0.833333            0.833333           0.0138889        14
       10            0.833333                0.75                0.75           0.0138889        15
       11            0.916667            0.916667                0.25           0.0138889        16
       12            0.916667            0.916667            0.333333           0.0138889        17
       13            0.916667            0.916667            0.416667           0.0138889        18
       14            0.916667            0.916667                 0.5           0.0138889        19
       15            0.916667            0.916667            0.583333           0.0138889        20
       16            0.916667            0.916667            0.666667           0.0138889        21
       17            0.916667            0.916667                0.75           0.0138889        22
       18            0.916667            0.916667            0.833333          0.00694444        23
       19            0.833333            0.833333                   0          0.00347222        26
       20            0.916667                0.75                0.75           0.0138889        27
       21            0.666667            0.666667            0.833333           0.0138889        28
       22            0.833333            0.833333                0.25           0.0138889        29
       23            0.833333            0.833333            0.333333           0.0138889        30
       24            0.833333            0.833333            0.416667           0.0138889        31
       25            0.833333            0.833333                 0.5           0.0138889        32
       26            0.833333            0.833333            0.583333           0.0138889        33
       27            0.833333            0.833333            0.666667          0.00694444        34
       28                   0                0.75                0.75          0.00347222        39
       29            0.916667            0.666667            0.666667           0.0138889        40
       30            0.833333            0.583333            0.583333           0.0138889        41
       31                0.75                0.75                0.25           0.0138889        42
       32                0.75                0.75            0.333333           0.0138889        43
       33                0.75                0.75            0.416667           0.0138889        44
       34                0.75                0.75                 0.5          0.00694444        45
       35                   0            0.666667            0.666667          0.00347222        52
       36            0.916667            0.583333            0.583333           0.0138889        53
       37            0.833333                 0.5                 0.5           0.0138889        54
       38            0.666667            0.666667                0.25           0.0138889        55
       39            0.666667            0.666667            0.333333          0.00694444        56
       40            0.583333            0.583333                   0          0.00347222        65
       41            0.916667                 0.5                 0.5           0.0138889        66
       42            0.833333            0.416667            0.416667          0.00694444        67
       43                   0                 0.5                 0.5          0.00173611        78
       44            0.916667            0.833333                0.75           0.0138889       171
       45            0.916667            0.833333            0.666667           0.0277778       172
       46            0.916667            0.833333            0.583333           0.0277778       173
       47            0.916667            0.833333                 0.5           0.0277778       174
       48            0.916667            0.833333            0.416667           0.0138889       175
       49            0.916667                0.75            0.666667           0.0138889       184
       50            0.916667                0.75            0.583333           0.0277778       185
       51            0.916667                0.75                 0.5           0.0277778       186
       52            0.916667                0.75            0.416667           0.0277778       187
       53            0.916667                0.75            0.333333           0.0277778       188
       54            0.833333                0.75                 0.5           0.0277778       189
       55            0.833333                0.75            0.583333           0.0138889       190
       56            0.916667            0.666667            0.583333           0.0138889       197
       57            0.916667            0.666667                 0.5           0.0277778       198
       58            0.916667            0.666667            0.416667           0.0277778       199
       59            0.916667            0.666667            0.333333           0.0277778       200
       60            0.916667            0.666667                0.25           0.0138889       201
       61            0.916667            0.583333                 0.5           0.0138889       210
       62            0.916667            0.583333            0.416667           0.0277778       211
       63            0.916667            0.583333            0.333333           0.0138889       212
       64            0.916667                 0.5            0.416667          0.00694444       223
       65            0.833333            0.666667                 0.5           0.0138889       342
       66            0.833333            0.666667            0.416667           0.0277778       343
       67            0.833333            0.666667            0.333333           0.0138889       344
       68            0.833333            0.583333            0.416667           0.0138889       355
       69            0.833333            0.583333            0.333333           0.0277778       356
       70            0.833333            0.583333                0.25           0.0138889       357
       71            0.833333                 0.5            0.333333          0.00694444       368
       72                0.75                 0.5                0.25          0.00347222       513
                               nkstot now = 72

  KPOINTS            DIRECT_X            DIRECT_Y            DIRECT_Z              WEIGHT
        1                   0                   0                   0         0.000578704
        2            0.916667            0.916667            0.916667          0.00462963
        3            0.833333            0.833333            0.833333          0.00462963
        4                0.75                0.75                0.75          0.00462963
        5            0.666667            0.666667            0.666667          0.00462963
        6            0.583333            0.583333            0.583333          0.00462963
        7                 0.5                 0.5                 0.5          0.00231481
        8                   0            0.916667            0.916667          0.00347222
        9            0.916667            0.833333            0.833333           0.0138889
       10            0.833333                0.75                0.75           0.0138889
       11            0.916667            0.916667                0.25           0.0138889
       12            0.916667            0.916667            0.333333           0.0138889
       13            0.916667            0.916667            0.416667           0.0138889
       14            0.916667            0.916667                 0.5           0.0138889
       15            0.916667            0.916667            0.583333           0.0138889
       16            0.916667            0.916667            0.666667           0.0138889
       17            0.916667            0.916667                0.75           0.0138889
       18            0.916667            0.916667            0.833333          0.00694444
       19            0.833333            0.833333                   0          0.00347222
       20            0.916667                0.75                0.75           0.0138889
       21            0.666667            0.666667            0.833333           0.0138889
       22            0.833333            0.833333                0.25           0.0138889
       23            0.833333            0.833333            0.333333           0.0138889
       24            0.833333            0.833333            0.416667           0.0138889
       25            0.833333            0.833333                 0.5           0.0138889
       26            0.833333            0.833333            0.583333           0.0138889
       27            0.833333            0.833333            0.666667          0.00694444
       28                   0                0.75                0.75          0.00347222
       29            0.916667            0.666667            0.666667           0.0138889
       30            0.833333            0.583333            0.583333           0.0138889
       31                0.75                0.75                0.25           0.0138889
       32                0.75                0.75            0.333333           0.0138889
       33                0.75                0.75            0.416667           0.0138889
       34                0.75                0.75                 0.5          0.00694444
       35                   0            0.666667            0.666667          0.00347222
       36            0.916667            0.583333            0.583333           0.0138889
       37            0.833333                 0.5                 0.5           0.0138889
       38            0.666667            0.666667                0.25           0.0138889
       39            0.666667            0.666667            0.333333          0.00694444
       40            0.583333            0.583333                   0          0.00347222
       41            0.916667                 0.5                 0.5           0.0138889
       42            0.833333            0.416667            0.416667          0.00694444
       43                   0                 0.5                 0.5          0.00173611
       44            0.916667            0.833333                0.75           0.0138889
       45            0.916667            0.833333            0.666667           0.0277778
       46            0.916667            0.833333            0.583333           0.0277778
       47            0.916667            0.833333                 0.5           0.0277778
       48            0.916667            0.833333            0.416667           0.0138889
       49            0.916667                0.75            0.666667           0.0138889
       50            0.916667                0.75            0.583333           0.0277778
       51            0.916667                0.75                 0.5           0.0277778
       52            0.916667                0.75            0.416667           0.0277778
       53            0.916667                0.75            0.333333           0.0277778
       54            0.833333                0.75                 0.5           0.0277778
       55            0.833333                0.75            0.583333           0.0138889
       56            0.916667            0.666667            0.583333           0.0138889
       57            0.916667            0.666667                 0.5           0.0277778
       58            0.916667            0.666667            0.416667           0.0277778
       59            0.916667            0.666667            0.333333           0.0277778
       60            0.916667            0.666667                0.25           0.0138889
       61            0.916667            0.583333                 0.5           0.0138889
       62            0.916667            0.583333            0.416667           0.0277778
       63            0.916667            0.583333            0.333333           0.0138889
       64            0.916667                 0.5            0.416667          0.00694444
       65            0.833333            0.666667                 0.5           0.0138889
       66            0.833333            0.666667            0.416667           0.0277778
       67            0.833333            0.666667            0.333333           0.0138889
       68            0.833333            0.583333            0.416667           0.0138889
       69            0.833333            0.583333            0.333333           0.0277778
       70            0.833333            0.583333                0.25           0.0138889
       71            0.833333                 0.5            0.333333          0.00694444
       72                0.75                 0.5                0.25          0.00347222

           k-point number in this process = 72
       minimum distributed K point number = 72

  KPOINTS         CARTESIAN_X         CARTESIAN_Y         CARTESIAN_Z              WEIGHT
        1                   0                   0                   0          0.00115741
        2            0.916667            0.916667            0.916667          0.00925926
        3            0.833333            0.833333            0.833333          0.00925926
        4                0.75                0.75                0.75          0.00925926
        5            0.666667            0.666667            0.666667          0.00925926
        6            0.583333            0.583333            0.583333          0.00925926
        7                 0.5                 0.5                 0.5          0.00462963
        8             1.83333                   0                   0          0.00694444
        9                0.75            0.916667            0.916667           0.0277778
       10            0.666667            0.833333            0.833333           0.0277778
       11                0.25                0.25             1.58333           0.0277778
       12            0.333333            0.333333                 1.5           0.0277778
       13            0.416667            0.416667             1.41667           0.0277778
       14                 0.5                 0.5             1.33333           0.0277778
       15            0.583333            0.583333                1.25           0.0277778
       16            0.666667            0.666667             1.16667           0.0277778
       17                0.75                0.75             1.08333           0.0277778
       18            0.833333            0.833333                   1           0.0138889
       19                   0                   0             1.66667          0.00694444
       20            0.583333            0.916667            0.916667           0.0277778
       21            0.833333            0.833333                 0.5           0.0277778
       22                0.25                0.25             1.41667           0.0277778
       23            0.333333            0.333333             1.33333           0.0277778
       24            0.416667            0.416667                1.25           0.0277778
       25                 0.5                 0.5             1.16667           0.0277778
       26            0.583333            0.583333             1.08333           0.0277778
       27            0.666667            0.666667                   1           0.0138889
       28                 1.5                   0                   0          0.00694444
       29            0.416667            0.916667            0.916667           0.0277778
       30            0.333333            0.833333            0.833333           0.0277778
       31                0.25                0.25                1.25           0.0277778
       32            0.333333            0.333333             1.16667           0.0277778
       33            0.416667            0.416667             1.08333           0.0277778
       34                 0.5                 0.5                   1           0.0138889
       35             1.33333                   0                   0          0.00694444
       36                0.25            0.916667            0.916667           0.0277778
       37            0.166667            0.833333            0.833333           0.0277778
       38                0.25                0.25             1.08333           0.0277778
       39            0.333333            0.333333                   1           0.0138889
       40                   0                   0             1.16667          0.00694444
       41           0.0833333            0.916667            0.916667           0.0277778
       42                   0            0.833333            0.833333           0.0138889
       43                   1                   0                   0          0.00347222
       44            0.666667            0.833333                   1           0.0277778
       45            0.583333                0.75             1.08333           0.0555556
       46                 0.5            0.666667             1.16667           0.0555556
       47            0.416667            0.583333                1.25           0.0555556
       48            0.333333                 0.5             1.33333           0.0277778
       49                 0.5            0.833333                   1           0.0277778
       50            0.416667                0.75             1.08333           0.0555556
       51            0.333333            0.666667             1.16667           0.0555556
       52                0.25            0.583333                1.25           0.0555556
       53            0.166667                 0.5             1.33333           0.0555556
       54            0.416667            0.583333             1.08333           0.0555556
       55                 0.5            0.666667                   1           0.0277778
       56            0.333333            0.833333                   1           0.0277778
       57                0.25                0.75             1.08333           0.0555556
       58            0.166667            0.666667             1.16667           0.0555556
       59           0.0833333            0.583333                1.25           0.0555556
       60                   0                 0.5             1.33333           0.0277778
       61            0.166667            0.833333                   1           0.0277778
       62           0.0833333                0.75             1.08333           0.0555556
       63                   0            0.666667             1.16667           0.0277778
       64                   0            0.833333                   1           0.0138889
       65            0.333333            0.666667                   1           0.0277778
       66                0.25            0.583333             1.08333           0.0555556
       67            0.166667                 0.5             1.16667           0.0277778
       68            0.166667            0.666667                   1           0.0277778
       69           0.0833333            0.583333             1.08333           0.0555556
       70                   0                 0.5             1.16667           0.0277778
       71                   0            0.666667                   1           0.0138889
       72                   0                 0.5                   1          0.00694444

  KPOINTS            DIRECT_X            DIRECT_Y            DIRECT_Z              WEIGHT
        1                   0                   0                   0          0.00115741
        2            0.916667            0.916667            0.916667          0.00925926
        3            0.833333            0.833333            0.833333          0.00925926
        4                0.75                0.75                0.75          0.00925926
        5            0.666667            0.666667            0.666667          0.00925926
        6            0.583333            0.583333            0.583333          0.00925926
        7                 0.5                 0.5                 0.5          0.00462963
        8                   0            0.916667            0.916667          0.00694444
        9            0.916667            0.833333            0.833333           0.0277778
       10            0.833333                0.75                0.75           0.0277778
       11            0.916667            0.916667                0.25           0.0277778
       12            0.916667            0.916667            0.333333           0.0277778
       13            0.916667            0.916667            0.416667           0.0277778
       14            0.916667            0.916667                 0.5           0.0277778
       15            0.916667            0.916667            0.583333           0.0277778
       16            0.916667            0.916667            0.666667           0.0277778
       17            0.916667            0.916667                0.75           0.0277778
       18            0.916667            0.916667            0.833333           0.0138889
       19            0.833333            0.833333                   0          0.00694444
       20            0.916667                0.75                0.75           0.0277778
       21            0.666667            0.666667            0.833333           0.0277778
       22            0.833333            0.833333                0.25           0.0277778
       23            0.833333            0.833333            0.333333           0.0277778
       24            0.833333            0.833333            0.416667           0.0277778
       25            0.833333            0.833333                 0.5           0.0277778
       26            0.833333            0.833333            0.583333           0.0277778
       27            0.833333            0.833333            0.666667           0.0138889
       28                   0                0.75                0.75          0.00694444
       29            0.916667            0.666667            0.666667           0.0277778
       30            0.833333            0.583333            0.583333           0.0277778
       31                0.75                0.75                0.25           0.0277778
       32                0.75                0.75            0.333333           0.0277778
       33                0.75                0.75            0.416667           0.0277778
       34                0.75                0.75                 0.5           0.0138889
       35                   0            0.666667            0.666667          0.00694444
       36            0.916667            0.583333            0.583333           0.0277778
       37            0.833333                 0.5                 0.5           0.0277778
       38            0.666667            0.666667                0.25           0.0277778
       39            0.666667            0.666667            0.333333           0.0138889
       40            0.583333            0.583333                   0          0.00694444
       41            0.916667                 0.5                 0.5           0.0277778
       42            0.833333            0.416667            0.416667           0.0138889
       43                   0                 0.5                 0.5          0.00347222
       44            0.916667            0.833333                0.75           0.0277778
       45            0.916667            0.833333            0.666667           0.0555556
       46            0.916667            0.833333            0.583333           0.0555556
       47            0.916667            0.833333                 0.5           0.0555556
       48            0.916667            0.833333            0.416667           0.0277778
       49            0.916667                0.75            0.666667           0.0277778
       50            0.916667                0.75            0.583333           0.0555556
       51            0.916667                0.75                 0.5           0.0555556
       52            0.916667                0.75            0.416667           0.0555556
       53            0.916667                0.75            0.333333           0.0555556
       54            0.833333                0.75                 0.5           0.0555556
       55            0.833333                0.75            0.583333           0.0277778
       56            0.916667            0.666667            0.583333           0.0277778
       57            0.916667            0.666667                 0.5           0.0555556
       58            0.916667            0.666667            0.416667           0.0555556
       59            0.916667            0.666667            0.333333           0.0555556
       60            0.916667            0.666667                0.25           0.0277778
       61            0.916667            0.583333                 0.5           0.0277778
       62            0.916667            0.583333            0.416667           0.0555556
       63            0.916667            0.583333            0.333333           0.0277778
       64            0.916667                 0.5            0.416667           0.0138889
       65            0.833333            0.666667                 0.5           0.0277778
       66            0.833333            0.666667            0.416667           0.0555556
       67            0.833333            0.666667            0.333333           0.0277778
       68            0.833333            0.583333            0.416667           0.0277778
       69            0.833333            0.583333            0.333333           0.0555556
       70            0.833333            0.583333                0.25           0.0277778
       71            0.833333                 0.5            0.333333           0.0138889
       72                0.75                 0.5                0.25          0.00694444
 DONE : INIT K-POINTS Time : 0.0858889 (SEC)





 >>>>>>>>>>>>>>>>>>>>>>>>>>>>>>>>>>>>>>>>>>>>>>>>>>>>>>>>>>>>>>>>>>>>>>
 |                                                                    |
 | Setup plane waves:                                                 |
 | Use the energy cutoff and the lattice vectors to generate the      |
 | dimensions of FFT grid. The number of FFT grid on each processor   |
 | is 'nrxx'. The number of plane wave basis in reciprocal space is   |
 | different for charege/potential and wave functions. We also set    |
 | the 'sticks' for the parallel of FFT.                              |
 |                                                                    |
 <<<<<<<<<<<<<<<<<<<<<<<<<<<<<<<<<<<<<<<<<<<<<<<<<<<<<<<<<<<<<<<<<<<<<<





 SETUP THE PLANE WAVE BASIS
     energy cutoff for wavefunc (unit:Ry) = 75
            [fft grid for wave functions] = 36, 36, 36
          [fft grid for charge/potential] = 36, 36, 36
                      [fft grid division] = 1, 1, 1
      [big fft grid for charge/potential] = 36, 36, 36
                                     nbxx = 46656
                                     nrxx = 46656

 SETUP PLANE WAVES FOR CHARGE/POTENTIAL
                    number of plane waves = 16889
                         number of sticks = 859

 SETUP PLANE WAVES FOR WAVE FUNCTIONS
                    number of plane waves = 3143
                         number of sticks = 283

 PARALLEL PW FOR CHARGE/POTENTIAL
     PROC   COLUMNS(POT)             PW
        1            859          16889
 --------------- sum -------------------
        1            859          16889

 PARALLEL PW FOR WAVE FUNCTIONS
     PROC     COLUMNS(W)             PW
        1            283           3143
 --------------- sum -------------------
        1            283           3143

 SETUP COORDINATES OF PLANE WAVES
              number of total plane waves = 16889

 SETUP COORDINATES OF PLANE WAVES
                            number of |g| = 215
                                  max |g| = 640
                                  min |g| = 0
 DONE : INIT PLANEWAVE Time : 0.167814 (SEC)

                                     npwx = 2159

 SETUP NONLOCAL PSEUDOPOTENTIALS IN PLANE WAVE BASIS
 Si non-local projectors:
      TOTAL NUMBER OF NONLOCAL PROJECTORS = 0

 nhm = 0, not allocate some matrix. DONE : LOCAL POTENTIAL Time : 0.213582 (SEC)


 Init Non-Local PseudoPotential table : 
 Init Non-Local-Pseudopotential done.
 DONE : NON-LOCAL POTENTIAL Time : 0.213627 (SEC)

                                start_pot = atomic
 DONE : INIT POTENTIAL Time : 0.246961 (SEC)


 Make real space PAO into reciprocal space.
       max mesh points in Pseudopotential = 1601
     dq(describe PAO in reciprocal space) = 0.01
                                    max q = 1045

 number of pseudo atomic orbitals for Si is 0
 DONE : INIT BASIS Time : 3.13317 (SEC)


 -------------------------------------------
 SELF-CONSISTENT
 -------------------------------------------

 PW ALGORITHM --------------- ION=   1  ELEC=   1--------------------------------
  K-point    CG iter num      Time(Sec)
        1       6.500000       0.299131
        2       6.750000       0.331504
        3       7.083333       0.364794
        4       6.833333       0.357312
        5       7.166667       0.364410
        6       7.083333       0.391635
        7       6.166667       0.306602
        8       6.833333       0.319418
        9       8.250000       0.438823
       10       7.166667       0.377013
       11       7.416667       0.390793
       12       6.833333       0.368791
       13       7.166667       0.402003
       14       7.833333       0.438596
       15       6.666667       0.340561
       16       7.083333       0.346962
       17       8.000000       0.441033
       18       7.083333       0.405191
       19       6.666667       0.344477
       20       7.000000       0.386483
       21       6.416667       0.360101
       22       6.666667       0.356028
       23       7.666667       0.420207
       24       7.250000       0.385419
       25       6.916667       0.392529
       26       6.666667       0.377646
       27       7.250000       0.474213
       28       7.333333       0.399865
       29       7.250000       0.402124
       30       7.166667       0.396061
       31       7.166667       0.429082
       32       6.583333       0.424464
       33       7.416667       0.445210
       34       7.250000       0.407373
       35       7.083333       0.433324
       36       7.000000       0.453325
       37       7.333333       0.461791
       38       7.000000       0.436122
       39       6.833333       0.438963
       40       8.166667       0.522706
       41       7.666667       0.386189
       42       6.500000       0.383397
       43       6.583333       0.395905
       44       7.166667       0.456699
       45       6.833333       0.422926
       46       7.833333       0.475887
       47       7.083333       0.433355
       48       7.333333       0.445679
       49       7.750000       0.459721
       50       6.750000       0.426321
       51       6.916667       0.542046
       52       7.333333       0.490146
       53       7.500000       0.491553
       54       7.333333       0.483653
       55       7.250000       0.473743
       56       7.750000       0.509114
       57       8.166667       0.536279
       58       7.166667       0.458163
       59       8.500000       0.532213
       60       7.250000       0.461403
       61       7.416667       0.464092
       62       7.583333       0.477148
       63       8.250000       0.514817
       64       7.250000       0.456481
       65       7.000000       0.455871
       66       7.250000       0.456679
       67       6.750000       0.430276
       68       6.916667       0.443447
       69       7.666667       0.485840
       70       6.750000       0.434773
       71       6.916667       0.449518
       72       7.000000       0.448598

 Density error is 0.921749553550
                          Error Threshold = 0.010000000000

       Energy                       Rydberg                            eV
   E_KohnSham              -15.927062836498             -216.698806980417
     E_Harris              -16.269014926172             -221.351303842984
      E_Fermi               +0.647527204098               +8.810059585740

 PW ALGORITHM --------------- ION=   1  ELEC=   2--------------------------------
  K-point    CG iter num      Time(Sec)
        1       2.000000       0.165701
        2       2.000000       0.157714
        3       2.000000       0.162071
        4       2.000000       0.162676
        5       2.000000       0.164888
        6       2.083333       0.166792
        7       2.000000       0.165112
        8       2.000000       0.180299
        9       2.000000       0.115142
       10       2.000000       0.123906
       11       2.000000       0.117413
       12       2.083333       0.114794
       13       2.166667       0.120030
       14       2.000000       0.107978
       15       2.000000       0.106920
       16       2.000000       0.117681
       17       2.000000       0.107131
       18       2.000000       0.107238
       19       2.000000       0.112876
       20       2.000000       0.115156
       21       2.000000       0.112251
       22       2.000000       0.112907
       23       2.000000       0.109969
       24       2.083333       0.108558
       25       2.083333       0.113994
       26       2.000000       0.106976
       27       2.000000       0.105520
       28       2.000000       0.117058
       29       2.000000       0.114015
       30       2.000000       0.129614
       31       2.250000       0.185047
       32       2.000000       0.153528
       33       2.000000       0.156888
       34       2.000000       0.154154
       35       2.000000       0.157628
       36       2.000000       0.150986
       37       2.000000       0.154805
       38       2.083333       0.159930
       39       2.000000       0.157284
       40       2.000000       0.151715
       41       2.000000       0.154745
       42       2.000000       0.155299
       43       2.000000       0.152810
       44       2.000000       0.153658
       45       2.000000       0.157230
       46       2.000000       0.157968
       47       2.000000       0.158072
       48       2.083333       0.159194
       49       2.000000       0.160936
       50       2.000000       0.160498
       51       2.000000       0.155934
       52       2.000000       0.159774
       53       2.000000       0.155390
       54       2.000000       0.160474
       55       2.000000       0.163547
       56       2.083333       0.166326
       57       2.083333       0.167451
       58       2.000000       0.156762
       59       2.000000       0.158814
       60       2.000000       0.155026
       61       2.000000       0.149022
       62       2.000000       0.154444
       63       2.000000       0.162780
       64       2.083333       0.168403
       65       2.250000       0.183527
       66       2.000000       0.161610
       67       2.000000       0.165790
       68       2.083333       0.169055
       69       2.083333       0.169937
       70       2.000000       0.156463
       71       2.000000       0.156362
       72       2.000000       0.159807

 Density error is 0.028623942514
                          Error Threshold = 0.010000000000

       Energy                       Rydberg                            eV
   E_KohnSham              -15.997078740577             -217.651422226505
     E_Harris              -15.987795232474             -217.525113618876
      E_Fermi               +0.737334031572              +10.031944158691

 PW ALGORITHM --------------- ION=   1  ELEC=   3--------------------------------
  K-point    CG iter num      Time(Sec)
        1       2.500000       0.196672
        2       3.083333       0.229879
        3       3.083333       0.231018
        4       2.833333       0.210236
        5       3.083333       0.223048
        6       3.333333       0.235736
        7       4.583333       0.324536
        8       3.083333       0.231046
        9       3.333333       0.244083
       10       3.166667       0.226374
       11       2.833333       0.217711
       12       3.500000       0.254554
       13       3.416667       0.246068
       14       3.083333       0.229764
       15       3.333333       0.239264
       16       3.083333       0.226695
       17       3.083333       0.224802
       18       3.583333       0.254811
       19       3.166667       0.234968
       20       3.416667       0.251138
       21       3.000000       0.220068
       22       3.666667       0.269845
       23       3.666667       0.268966
       24       3.833333       0.280682
       25       3.166667       0.233604
       26       3.333333       0.246750
       27       3.166667       0.237176
       28       3.250000       0.245814
       29       3.250000       0.240185
       30       3.916667       0.291686
       31       3.250000       0.234119
       32       3.416667       0.244351
       33       3.000000       0.223437
       34       3.333333       0.253532
       35       3.333333       0.250843
       36       3.666667       0.256231
       37       4.416667       0.309707
       38       3.416667       0.254592
       39       3.000000       0.218607
       40       3.500000       0.256410
       41       4.000000       0.263661
       42       3.500000       0.217419
       43       3.916667       0.235392
       44       3.500000       0.215868
       45       3.000000       0.191189
       46       3.500000       0.209380
       47       3.583333       0.213702
       48       2.916667       0.287356
       49       3.250000       0.256053
       50       3.500000       0.221458
       51       3.833333       0.240690
       52       3.250000       0.212216
       53       3.250000       0.207384
       54       3.666667       0.248205
       55       3.166667       0.228757
       56       3.583333       0.253893
       57       4.500000       0.325770
       58       3.166667       0.232199
       59       3.750000       0.270807
       60       3.000000       0.220995
       61       3.833333       0.279331
       62       4.000000       0.278252
       63       3.750000       0.228587
       64       3.333333       0.200536
       65       3.250000       0.213597
       66       3.750000       0.256989
       67       2.916667       0.216757
       68       3.416667       0.248463
       69       3.500000       0.248954
       70       3.000000       0.224086
       71       3.166667       0.223432
       72       3.083333       0.224386

 Density error is 0.000294629368
                          Error Threshold = 0.000357799281

       Energy                       Rydberg                            eV
   E_KohnSham              -15.999689480336             -217.686943163227
     E_Harris              -15.999195471225             -217.680221824454
      E_Fermi               +0.742965619572              +10.108565844282

 PW ALGORITHM --------------- ION=   1  ELEC=   4--------------------------------
  K-point    CG iter num      Time(Sec)
        1       3.500000       0.236637
        2       3.750000       0.254159
        3       3.333333       0.229399
        4       3.666667       0.245988
        5       3.833333       0.252896
        6       3.916667       0.259344
        7       4.833333       0.284542
        8       3.666667       0.224680
        9       3.833333       0.226970
       10       3.500000       0.214781
       11       3.666667       0.216718
       12       3.833333       0.230907
       13       4.500000       0.266459
       14       4.333333       0.254498
       15       3.583333       0.222248
       16       3.750000       0.225099
       17       3.750000       0.219659
       18       3.500000       0.199448
       19       4.166667       0.238337
       20       3.500000       0.208315
       21       4.000000       0.220096
       22       4.000000       0.236014
       23       3.666667       0.198834
       24       4.166667       0.253314
       25       4.166667       0.273035
       26       3.916667       0.258501
       27       3.583333       0.246296
       28       4.166667       0.287213
       29       4.333333       0.306392
       30       4.583333       0.320392
       31       4.250000       0.281362
       32       3.666667       0.252748
       33       3.666667       0.255229
       34       3.583333       0.244751
       35       4.500000       0.309592
       36       4.083333       0.295492
       37       3.833333       0.277715
       38       4.250000       0.302633
       39       3.750000       0.252186
       40       4.833333       0.322012
       41       4.416667       0.300819
       42       6.000000       0.389409
       43       4.166667       0.275228
       44       3.666667       0.259578
       45       3.916667       0.273468
       46       3.833333       0.261777
       47       3.833333       0.262894
       48       4.083333       0.281976
       49       3.833333       0.260457
       50       4.250000       0.287845
       51       4.083333       0.279832
       52       3.916667       0.265560
       53       3.916667       0.273384
       54       4.000000       0.275463
       55       4.000000       0.277713
       56       4.250000       0.293351
       57       4.500000       0.322907
       58       3.666667       0.271855
       59       3.500000       0.248156
       60       3.666667       0.208378
       61       5.083333       0.283953
       62       4.083333       0.228653
       63       6.166667       0.355164
       64       4.083333       0.247420
       65       3.833333       0.246168
       66       3.750000       0.233152
       67       3.500000       0.221523
       68       5.750000       0.341129
       69       3.583333       0.226358
       70       6.666667       0.391648
       71       3.833333       0.242191
       72       4.000000       0.244483

 Density error is 0.000016715585
                          Error Threshold = 0.000003682867

       Energy                       Rydberg                            eV
   E_KohnSham              -15.999888425979             -217.689649957572
     E_Harris              -15.999893792991             -217.689722979505
      E_Fermi               +0.743280477456              +10.112849705555

 PW ALGORITHM --------------- ION=   1  ELEC=   5--------------------------------
  K-point    CG iter num      Time(Sec)
        1       3.250000       0.221336
        2       3.166667       0.224880
        3       3.000000       0.193324
        4       3.000000       0.184151
        5       3.000000       0.156452
        6       3.083333       0.162367
        7       3.416667       0.177754
        8       2.833333       0.183625
        9       2.833333       0.161613
       10       2.833333       0.146059
       11       2.833333       0.146311
       12       3.333333       0.162903
       13       2.500000       0.131403
       14       2.833333       0.161469
       15       2.833333       0.193528
       16       2.666667       0.195676
       17       2.750000       0.159702
       18       3.750000       0.199993
       19       3.250000       0.179107
       20       3.500000       0.179968
       21       3.250000       0.174639
       22       3.250000       0.177152
       23       3.083333       0.166514
       24       2.916667       0.166633
       25       2.750000       0.150313
       26       3.333333       0.175089
       27       3.000000       0.171314
       28       3.333333       0.180758
       29       3.166667       0.169815
       30       3.250000       0.167527
       31       3.000000       0.166403
       32       2.666667       0.160362
       33       2.916667       0.179508
       34       2.916667       0.234554
       35       3.416667       0.194658
       36       3.500000       0.209327
       37       3.250000       0.247917
       38       3.250000       0.250166
       39       2.750000       0.207415
       40       3.083333       0.226721
       41       3.583333       0.247669
       42       4.916667       0.338866
       43       3.500000       0.258140
       44       3.416667       0.249036
       45       2.666667       0.203437
       46       2.916667       0.223943
       47       3.250000       0.243357
       48       2.666667       0.208241
       49       3.083333       0.178943
       50       3.083333       0.219879
       51       3.666667       0.264296
       52       2.750000       0.201162
       53       2.750000       0.194834
       54       2.750000       0.194967
       55       3.416667       0.220404
       56       3.500000       0.232558
       57       4.250000       0.283711
       58       2.916667       0.224873
       59       3.500000       0.259063
       60       2.750000       0.213350
       61       3.416667       0.272658
       62       3.500000       0.263267
       63       4.250000       0.304115
       64       3.083333       0.227601
       65       3.416667       0.245978
       66       3.583333       0.261190
       67       2.750000       0.210549
       68       4.500000       0.365745
       69       3.250000       0.248897
       70       4.083333       0.302243
       71       2.916667       0.218282
       72       3.000000       0.226209

 Density error is 0.000005554493
                          Error Threshold = 0.000000208945

       Energy                       Rydberg                            eV
   E_KohnSham              -15.999889549570             -217.689665244799
     E_Harris              -15.999892420911             -217.689704311408
      E_Fermi               +0.743214832093              +10.111956554581

 PW ALGORITHM --------------- ION=   1  ELEC=   6--------------------------------
  K-point    CG iter num      Time(Sec)
        1       2.333333       0.191795
        2       2.166667       0.170948
        3       2.250000       0.165363
        4       2.250000       0.148994
        5       2.250000       0.132213
        6       2.416667       0.126969
        7       2.500000       0.171997
        8       2.333333       0.176285
        9       2.333333       0.187054
       10       2.333333       0.178281
       11       2.333333       0.171576
       12       2.333333       0.171423
       13       2.416667       0.189656
       14       2.416667       0.191859
       15       2.416667       0.183332
       16       2.250000       0.161051
       17       2.416667       0.191466
       18       2.333333       0.194596
       19       2.250000       0.175299
       20       2.250000       0.174360
       21       2.250000       0.179211
       22       2.833333       0.203237
       23       2.583333       0.187454
       24       2.500000       0.190071
       25       2.333333       0.182537
       26       2.416667       0.200442
       27       2.333333       0.187154
       28       2.250000       0.181986
       29       2.333333       0.186472
       30       2.583333       0.205451
       31       2.416667       0.189963
       32       2.583333       0.217194
       33       2.416667       0.196944
       34       2.416667       0.203421
       35       2.166667       0.186640
       36       2.416667       0.193107
       37       2.916667       0.247832
       38       2.250000       0.197379
       39       2.250000       0.196782
       40       2.500000       0.210455
       41       2.500000       0.206643
       42       2.166667       0.189521
       43       2.666667       0.213450
       44       2.416667       0.206420
       45       2.250000       0.180364
       46       2.333333       0.188266
       47       2.500000       0.202969
       48       2.500000       0.196372
       49       2.333333       0.128486
       50       2.583333       0.152148
       51       2.416667       0.151301
       52       2.500000       0.157580
       53       2.500000       0.239908
       54       2.500000       0.213859
       55       2.416667       0.205422
       56       2.333333       0.195376
       57       2.416667       0.183759
       58       2.500000       0.173302
       59       2.250000       0.156780
       60       2.416667       0.171363
       61       2.583333       0.166887
       62       2.333333       0.156834
       63       2.333333       0.195489
       64       2.500000       0.206162
       65       2.333333       0.189881
       66       2.416667       0.176094
       67       2.333333       0.180629
       68       2.250000       0.176342
       69       2.500000       0.200033
       70       2.333333       0.194602
       71       2.500000       0.197227
       72       2.250000       0.181073

 Density error is 0.000000016771
                          Error Threshold = 0.000000069431

       Energy                       Rydberg                            eV
   E_KohnSham              -15.999890239498             -217.689674631752
     E_Harris              -15.999890248531             -217.689674754656
       E_band               +1.953857664962              +26.583597324453
   E_one_elec               +7.114819497681              +96.802085409966
    E_Hartree               +0.785393122785              +10.685821639891
         E_xc               -5.160557381263              -70.212985241140
      E_Ewald              -18.739544351838             -254.964581108715
      E_demet               -0.000001126863               -0.000015331754
      E_descf               +0.000000000000               +0.000000000000
     E_efield               +0.000000000000               +0.000000000000
        E_exx               +0.000000000000               +0.000000000000
      E_Fermi               +0.743255964534              +10.112516190150

 charge density convergence is achieved
 final etot is -217.689674631752 eV

 STATE ENERGY(eV) AND OCCUPATIONS    NSPIN == 1
 1/72 kpoint (Cartesian) = 0.00000 0.00000 0.00000 (2109 pws)
       1      -5.699051       0.001157
       2      10.514520       0.000000
       3      10.514520       0.000000
       4      10.514520       0.000000
       5      13.159854       0.000000
       6      13.159855       0.000000
       7      13.159854       0.000000
       8      15.212612       0.000000
       9      18.468075       0.000000
      10      19.924996       0.000000
      11      19.924997       0.000000
      12      22.892125       0.000000

 2/72 kpoint (Cartesian) = 0.916667 0.916667 0.916667 (2106 pws)
       1      -5.578484       0.009259
       2       9.179210       0.009259
       3      10.248868       0.000000
       4      10.248868       0.000000
       5      13.365715       0.000000
       6      13.525639       0.000000
       7      13.525639       0.000000
       8      16.042020       0.000000
       9      19.123330       0.000000
      10      19.296853       0.000000
      11      19.296853       0.000000
      12      22.347403       0.000000

 3/72 kpoint (Cartesian) = 0.833333 0.833333 0.833333 (2112 pws)
       1      -5.219329       0.009259
       2       6.980762       0.009259
       3       9.741156       0.009259
       4       9.741156       0.009259
       5      13.078980       0.000000
       6      14.188870       0.000000
       7      14.188871       0.000000
       8      17.792099       0.000000
       9      18.595288       0.000000
      10      18.595288       0.000000
      11      20.171548       0.000000
      12      22.230637       0.000000

 4/72 kpoint (Cartesian) = 0.750000 0.750000 0.750000 (2127 pws)
       1      -4.631507       0.009259
       2       4.811111       0.009259
       3       9.271013       0.009259
       4       9.271013       0.009259
       5      12.669046       0.000000
       6      14.459477       0.000000
       7      14.459477       0.000000
       8      18.833028       0.000000
       9      18.833028       0.000000
      10      19.152312       0.000000
      11      20.109768       0.000000
      12      24.672701       0.000000

 5/72 kpoint (Cartesian) = 0.666667 0.666667 0.666667 (2138 pws)
       1      -3.844059       0.009259
       2       2.853214       0.009259
       3       8.922914       0.009259
       4       8.922914       0.009259
       5      12.341825       0.000000
       6      14.233621       0.000000
       7      14.233621       0.000000
       8      18.678619       0.000000
       9      20.140230       0.000000
      10      20.140230       0.000000
      11      21.800132       0.000000
      12      27.885779       0.000000

 6/72 kpoint (Cartesian) = 0.583333 0.583333 0.583333 (2129 pws)
       1      -2.961576       0.009259
       2       1.257382       0.009259
       3       8.714595       0.009259
       4       8.714595       0.009259
       5      12.141531       0.000000
       6      13.943558       0.000000
       7      13.943558       0.000000
       8      18.215888       0.000000
       9      22.088495       0.000000
      10      22.088495       0.000000
      11      23.786383       0.000000
      12      27.150400       0.000000

 7/72 kpoint (Cartesian) = 0.500000 0.500000 0.500000 (2120 pws)
       1      -2.447977       0.004630
       2       0.504485       0.004630
       3       8.645726       0.004630
       4       8.645726       0.004630
       5      12.074827       0.000000
       6      13.827876       0.000000
       7      13.827876       0.000000
       8      18.052829       0.000000
       9      24.187546       0.000000
      10      24.187548       0.000000
      11      24.738637       0.000000
      12      24.738637       0.000000

 8/72 kpoint (Cartesian) = 1.833333 0.000000 0.000000 (2121 pws)
       1      -5.538165       0.006944
       2       9.607115       0.006944
       3       9.720667       0.006944
       4       9.720667       0.006944
       5      12.654651       0.000000
       6      14.181339       0.000000
       7      14.181339       0.000000
       8      16.006476       0.000000
       9      18.431086       0.000000
      10      19.313982       0.000000
      11      20.099437       0.000000
      12      23.182490       0.000000

 9/72 kpoint (Cartesian) = 0.750000 0.916667 0.916667 (2128 pws)
       1      -5.258056       0.027778
       2       7.700247       0.027778
       3       9.135253       0.027778
       4       9.543087       0.027778
       5      12.721577       0.000000
       6      14.403468       0.000000
       7      15.014583       0.000000
       8      16.473637       0.000000
       9      18.462435       0.000000
      10      19.802205       0.000000
      11      20.478130       0.000000
      12      22.633208       0.000000

 10/72 kpoint (Cartesian) = 0.666667 0.833333 0.833333 (2124 pws)
       1      -4.744976       0.027778
       2       5.550496       0.027778
       3       8.667606       0.027778
       4       9.038644       0.027778
       5      13.032247       0.000000
       6      14.261633       0.000000
       7      15.456678       0.000000
       8      16.418107       0.000000
       9      19.816739       0.000000
      10      20.083908       0.000000
      11      20.708732       0.000000
      12      23.863475       0.000000

 11/72 kpoint (Cartesian) = 0.250000 0.250000 1.583333 (2131 pws)
       1      -4.018887       0.027778
       2       3.535234       0.027778
       3       8.372790       0.027778
       4       8.509448       0.027778
       5      12.912247       0.000000
       6      14.081210       0.000000
       7      15.233398       0.000000
       8      17.291724       0.000000
       9      19.994475       0.000000
      10      20.906396       0.000000
      11      22.055058       0.000000
      12      26.802595       0.000000

 12/72 kpoint (Cartesian) = 0.333333 0.333333 1.500000 (2124 pws)
       1      -3.145193       0.027778
       2       1.805491       0.027778
       3       8.067183       0.027778
       4       8.264208       0.027778
       5      12.717473       0.000000
       6      13.860354       0.000000
       7      14.767716       0.000000
       8      18.597436       0.000000
       9      19.898400       0.000000
      10      22.733277       0.000000
      11      24.052758       0.000000
      12      26.863863       0.000000

 13/72 kpoint (Cartesian) = 0.416667 0.416667 1.416667 (2125 pws)
       1      -2.410715       0.027778
       2       0.677971       0.027778
       3       7.751066       0.027778
       4       8.337348       0.027778
       5      12.652284       0.000000
       6      13.783530       0.000000
       7      14.388674       0.000000
       8      18.838024       0.000000
       9      21.546490       0.000000
      10      24.027935       0.000000
      11      24.940608       0.000000
      12      25.096845       0.000000

 14/72 kpoint (Cartesian) = 0.500000 0.500000 1.333333 (2126 pws)
       1      -2.598728       0.027778
       2       0.945802       0.027778
       3       7.586389       0.027778
       4       8.576896       0.027778
       5      12.740662       0.000000
       6      13.919611       0.000000
       7      14.206444       0.000000
       8      18.928044       0.000000
       9      21.636918       0.000000
      10      22.443750       0.000000
      11      24.381413       0.000000
      12      26.261899       0.000000

 15/72 kpoint (Cartesian) = 0.583333 0.583333 1.250000 (2129 pws)
       1      -3.445341       0.027778
       2       2.343035       0.027778
       3       7.594225       0.027778
       4       8.958782       0.027778
       5      12.953570       0.000000
       6      14.219556       0.000000
       7      14.272925       0.000000
       8      19.025390       0.000000
       9      19.569491       0.000000
      10      20.827817       0.000000
      11      24.133104       0.000000
      12      26.944296       0.000000

 16/72 kpoint (Cartesian) = 0.666667 0.666667 1.166667 (2129 pws)
       1      -4.283281       0.027778
       2       4.185929       0.027778
       3       7.791457       0.027778
       4       9.447296       0.027778
       5      13.266137       0.000000
       6      14.275625       0.000000
       7      14.701313       0.000000
       8      18.079606       0.000000
       9      18.248210       0.000000
      10      20.572603       0.000000
      11      22.175679       0.000000
      12      25.628214       0.000000

 17/72 kpoint (Cartesian) = 0.750000 0.750000 1.083333 (2123 pws)
       1      -4.941791       0.027778
       2       6.250453       0.027778
       3       8.196388       0.027778
       4       9.973536       0.027778
       5      13.644615       0.000000
       6      14.003421       0.000000
       7      14.676564       0.000000
       8      17.488779       0.000000
       9      17.604186       0.000000
      10      20.369417       0.000000
      11      21.073613       0.000000
      12      23.111219       0.000000

 18/72 kpoint (Cartesian) = 0.833333 0.833333 1.000000 (2131 pws)
       1      -5.378199       0.013889
       2       8.207834       0.013889
       3       8.954538       0.013889
       4      10.352774       0.000000
       5      13.505386       0.000000
       6      13.877018       0.000000
       7      13.960757       0.000000
       8      16.964160       0.000000
       9      18.190834       0.000000
      10      19.437214       0.000000
      11      20.043733       0.000000
      12      22.865438       0.000000

 19/72 kpoint (Cartesian) = 0.000000 0.000000 1.666667 (2121 pws)
       1      -5.057068       0.006944
       2       7.819458       0.006944
       3       8.503240       0.006944
       4       8.503240       0.006944
       5      11.686971       0.000000
       6      15.136757       0.000000
       7      16.060457       0.000000
       8      16.060457       0.000000
       9      18.950385       0.000000
      10      20.622709       0.000000
      11      21.295150       0.000000
      12      24.072186       0.000000

 20/72 kpoint (Cartesian) = 0.583333 0.916667 0.916667 (2124 pws)
       1      -4.620715       0.027778
       2       6.176487       0.027778
       3       8.002857       0.027778
       4       8.050292       0.027778
       5      11.749289       0.000000
       6      14.392709       0.000000
       7      16.388615       0.000000
       8      16.829886       0.000000
       9      20.635312       0.000000
      10      20.833853       0.000000
      11      22.372443       0.000000
      12      24.014813       0.000000

 21/72 kpoint (Cartesian) = 0.833333 0.833333 0.500000 (2128 pws)
       1      -3.962741       0.027778
       2       4.266722       0.027778
       3       7.395138       0.027778
       4       7.689898       0.027778
       5      12.027617       0.000000
       6      14.715472       0.000000
       7      16.110963       0.000000
       8      16.811831       0.000000
       9      21.749303       0.000000
      10      21.982888       0.000000
      11      22.751435       0.000000
      12      26.041632       0.000000

 22/72 kpoint (Cartesian) = 0.250000 0.250000 1.416667 (2123 pws)
       1      -3.125026       0.027778
       2       2.501582       0.027778
       3       6.758729       0.027778
       4       7.582755       0.027778
       5      11.987956       0.000000
       6      15.643454       0.000000
       7      16.307574       0.000000
       8      16.315273       0.000000
       9      21.436529       0.000000
      10      23.488261       0.000000
      11      24.812724       0.000000
      12      26.782705       0.000000

 23/72 kpoint (Cartesian) = 0.333333 0.333333 1.333333 (2136 pws)
       1      -2.276983       0.027778
       2       1.141050       0.027778
       3       6.251176       0.027778
       4       7.683039       0.027778
       5      12.023201       0.000000
       6      15.455535       0.000000
       7      15.799077       0.000000
       8      18.232491       0.000000
       9      21.120699       0.000000
      10      23.924877       0.000000
      11      25.083279       0.000000
      12      25.756627       0.000000

 24/72 kpoint (Cartesian) = 0.416667 0.416667 1.250000 (2140 pws)
       1      -2.096396       0.027778
       2       0.893306       0.027778
       3       5.918926       0.027778
       4       7.980592       0.027778
       5      12.277809       0.000000
       6      15.328936       0.000000
       7      15.429169       0.000000
       8      20.265964       0.000000
       9      20.922062       0.000000
      10      21.408902       0.000000
      11      23.364322       0.000000
      12      28.282256       0.000000

 25/72 kpoint (Cartesian) = 0.500000 0.500000 1.166667 (2135 pws)
       1      -2.838818       0.027778
       2       2.014881       0.027778
       3       5.794854       0.027778
       4       8.450990       0.027778
       5      12.751098       0.000000
       6      15.228583       0.000000
       7      15.338567       0.000000
       8      19.236921       0.000000
       9      19.503978       0.000000
      10      21.720329       0.000000
      11      24.102489       0.000000
      12      27.616080       0.000000

 26/72 kpoint (Cartesian) = 0.583333 0.583333 1.083333 (2132 pws)
       1      -3.710256       0.027778
       2       3.669853       0.027778
       3       5.927898       0.027778
       4       9.043158       0.027778
       5      13.374628       0.000000
       6      15.059462       0.000000
       7      15.435545       0.000000
       8      17.640305       0.000000
       9      17.842382       0.000000
      10      22.365268       0.000000
      11      25.291314       0.000000
      12      25.556933       0.000000

 27/72 kpoint (Cartesian) = 0.666667 0.666667 1.000000 (2129 pws)
       1      -4.432257       0.013889
       2       5.311689       0.013889
       3       6.559094       0.013889
       4       9.640535       0.013889
       5      13.951250       0.000000
       6      14.540425       0.000000
       7      15.119638       0.000000
       8      17.027712       0.000000
       9      17.121835       0.000000
      10      22.570107       0.000000
      11      22.921106       0.000000
      12      23.740216       0.000000

 28/72 kpoint (Cartesian) = 1.500000 0.000000 0.000000 (2141 pws)
       1      -4.260793       0.006944
       2       5.814691       0.006944
       3       7.457535       0.006944
       4       7.457535       0.006944
       5      10.798539       0.000000
       6      13.124522       0.000000
       7      18.150746       0.000000
       8      18.150746       0.000000
       9      21.346022       0.000000
      10      21.494658       0.000000
      11      23.829658       0.000000
      12      25.598816       0.000000

 29/72 kpoint (Cartesian) = 0.416667 0.916667 0.916667 (2121 pws)
       1      -3.674424       0.027778
       2       4.516210       0.027778
       3       6.735855       0.027778
       4       7.098579       0.027778
       5      10.930761       0.000000
       6      12.685925       0.000000
       7      18.502204       0.000000
       8      18.667524       0.000000
       9      22.362566       0.000000
      10      23.235783       0.000000
      11      24.458125       0.000000
      12      26.174555       0.000000

 30/72 kpoint (Cartesian) = 0.333333 0.833333 0.833333 (2129 pws)
       1      -2.888816       0.027778
       2       3.024001       0.027778
       3       5.795856       0.027778
       4       6.950443       0.027778
       5      11.105130       0.000000
       6      13.588619       0.000000
       7      18.228189       0.000000
       8      18.290496       0.000000
       9      23.926214       0.000000
      10      24.125258       0.000000
      11      25.570518       0.000000
      12      26.892544       0.000000

 31/72 kpoint (Cartesian) = 0.250000 0.250000 1.250000 (2136 pws)
       1      -2.003800       0.027778
       2       1.661600       0.027778
       3       5.015676       0.027778
       4       7.019445       0.027778
       5      11.170632       0.000000
       6      15.378662       0.000000
       7      17.718270       0.000000
       8      17.927442       0.000000
       9      23.261143       0.000000
      10      24.024937       0.000000
      11      25.641756       0.000000
      12      26.411518       0.000000

 32/72 kpoint (Cartesian) = 0.333333 0.333333 1.166667 (2136 pws)
       1      -1.502468       0.027778
       2       1.014078       0.027778
       3       4.487118       0.027778
       4       7.300211       0.027778
       5      11.432444       0.000000
       6      17.082355       0.000000
       7      17.235120       0.000000
       8      18.199665       0.000000
       9      21.415213       0.000000
      10      21.765498       0.000000
      11      24.704027       0.000000
      12      28.971021       0.000000

 33/72 kpoint (Cartesian) = 0.416667 0.416667 1.083333 (2144 pws)
       1      -2.060419       0.027778
       2       1.765183       0.027778
       3       4.266865       0.027778
       4       7.773507       0.027778
       5      11.932016       0.000000
       6      16.870356       0.000000
       7      17.235535       0.000000
       8      19.175720       0.000000
       9      19.496089       0.000000
      10      20.576214       0.000000
      11      24.845661       0.000000
      12      28.200582       0.000000

 34/72 kpoint (Cartesian) = 0.500000 0.500000 1.000000 (2135 pws)
       1      -2.939148       0.013889
       2       2.958082       0.013889
       3       4.589780       0.013889
       4       8.392940       0.013889
       5      12.633139       0.000000
       6      16.259301       0.000000
       7      16.876308       0.000000
       8      17.761079       0.000000
       9      17.955320       0.000000
      10      22.909329       0.000000
      11      25.334961       0.000000
      12      25.694357       0.000000

 35/72 kpoint (Cartesian) = 1.333333 0.000000 0.000000 (2129 pws)
       1      -3.159040       0.006944
       2       3.756643       0.006944
       3       6.684475       0.006944
       4       6.684475       0.006944
       5      10.176835       0.000000
       6      11.565037       0.000000
       7      20.311636       0.000000
       8      20.311636       0.000000
       9      22.715015       0.000000
      10      23.848779       0.000000
      11      26.562337       0.000000
      12      27.688846       0.000000

 36/72 kpoint (Cartesian) = 0.250000 0.916667 0.916667 (2133 pws)
       1      -2.433907       0.027778
       2       2.670955       0.027778
       3       5.887937       0.027778
       4       6.479808       0.027778
       5      10.377218       0.000000
       6      11.534826       0.000000
       7      20.529096       0.000000
       8      20.674239       0.000000
       9      24.251983       0.000000
      10      25.752833       0.000000
      11      26.452527       0.000000
      12      27.214087       0.000000

 37/72 kpoint (Cartesian) = 0.166667 0.833333 0.833333 (2138 pws)
       1      -1.557992       0.027778
       2       1.604598       0.027778
[...]
       3       6.213379       0.006944
       4       6.213379       0.006944
       5       9.895321       0.006944
       6      10.538694       0.000000
       7      22.527024       0.000000
       8      22.527024       0.000000
       9      24.283379       0.000000
      10      26.101021       0.000000
      11      27.358349       0.000000
      12      27.358351       0.000000

 41/72 kpoint (Cartesian) = 0.083333 0.916667 0.916667 (2139 pws)
       1      -0.925905       0.027778
       2       0.807358       0.027778
       3       5.486204       0.027778
       4       6.166748       0.027778
       5      10.110953       0.021991
       6      10.956350       0.000000
       7      22.508023       0.000000
       8      22.889444       0.000000
       9      24.814061       0.000000
      10      25.177232       0.000000
      11      26.381013       0.000000
      12      27.905545       0.000000

 42/72 kpoint (Cartesian) = 0.000000 0.833333 0.833333 (2143 pws)
       1      -0.235310       0.013889
       2       0.225891       0.013889
       3       4.409867       0.013889
       4       6.341966       0.013889
       5      10.313558       0.000000
       6      12.752646       0.000000
       7      21.659163       0.000000
       8      22.358716       0.000000
       9      22.541143       0.000000
      10      22.615629       0.000000
      11      29.171904       0.000000
      12      29.426049       0.000000

 43/72 kpoint (Cartesian) = 1.000000 0.000000 0.000000 (2100 pws)
       1      -0.117580       0.003472
       2      -0.117580       0.003472
       3       6.055337       0.003472
       4       6.055337       0.003472
       5      10.000425       0.003472
       6      10.000425       0.003472
       7      24.560655       0.000000
       8      24.560655       0.000000
       9      25.214572       0.000000
      10      25.214572       0.000000
      11      26.199185       0.000000
      12      26.199186       0.000000

 44/72 kpoint (Cartesian) = 0.666667 0.833333 1.000000 (2108 pws)
       1      -4.900146       0.027778
       2       6.686519       0.027778
       3       7.751364       0.027778
       4       9.397027       0.027778
       5      12.729128       0.000000
       6      14.914749       0.000000
       7      15.677594       0.000000
       8      15.754258       0.000000
       9      18.954883       0.000000
      10      20.720444       0.000000
      11      21.684343       0.000000
      12      23.396767       0.000000

 45/72 kpoint (Cartesian) = 0.583333 0.750000 1.083333 (2129 pws)
       1      -4.314241       0.055556
       2       4.896059       0.055556
       3       7.023478       0.055556
       4       8.945470       0.055556
       5      13.138411       0.000000
       6      14.712218       0.000000
       7      15.602439       0.000000
       8      16.186702       0.000000
       9      19.304544       0.000000
      10      21.941817       0.000000
      11      22.796290       0.000000
      12      24.648447       0.000000

 46/72 kpoint (Cartesian) = 0.500000 0.666667 1.166667 (2130 pws)
       1      -3.528731       0.055556
       2       3.034964       0.055556
       3       6.701425       0.055556
       4       8.411467       0.055556
       5      13.188949       0.000000
       6      14.188822       0.000000
       7      16.056237       0.000000
       8      16.807290       0.000000
       9      20.464325       0.000000
      10      21.570097       0.000000
      11      24.812317       0.000000
      12      26.575350       0.000000

 47/72 kpoint (Cartesian) = 0.416667 0.583333 1.250000 (2134 pws)
       1      -2.645714       0.055556
       2       1.473864       0.055556
       3       6.565558       0.055556
       4       8.007604       0.055556
       5      13.181341       0.000000
       6      13.692191       0.000000
       7      15.866760       0.000000
       8      18.604482       0.000000
       9      20.680179       0.000000
      10      22.743026       0.000000
      11      24.294977       0.000000
      12      26.896972       0.000000

 48/72 kpoint (Cartesian) = 0.333333 0.500000 1.333333 (2132 pws)
       1      -2.127670       0.027778
       2       0.726205       0.027778
       3       6.534097       0.027778
       4       7.854953       0.027778
       5      13.310764       0.000000
       6      13.371973       0.000000
       7      15.788617       0.000000
       8      19.891833       0.000000
       9      20.818444       0.000000
      10      22.084175       0.000000
      11      25.133117       0.000000
      12      25.653939       0.000000

 49/72 kpoint (Cartesian) = 0.500000 0.833333 1.000000 (2125 pws)
       1      -4.110061       0.027778
       2       5.155914       0.027778
       3       6.722109       0.027778
       4       7.900326       0.027778
       5      11.856252       0.000000
       6      13.746036       0.000000
       7      16.573076       0.000000
       8      17.897512       0.000000
       9      20.715539       0.000000
      10      22.998863       0.000000
      11      23.644644       0.000000
      12      24.517294       0.000000

 50/72 kpoint (Cartesian) = 0.416667 0.750000 1.083333 (2128 pws)
       1      -3.387306       0.055556
       2       3.645949       0.055556
       3       5.980796       0.055556
       4       7.414759       0.055556
       5      12.248292       0.000000
       6      14.182407       0.000000
       7      16.085933       0.000000
       8      18.300262       0.000000
       9      21.656192       0.000000
      10      23.420390       0.000000
      11      25.440392       0.000000
      12      26.023097       0.000000

 51/72 kpoint (Cartesian) = 0.333333 0.666667 1.166667 (2139 pws)
       1      -2.514709       0.055556
       2       2.103351       0.055556
       3       5.532797       0.055556
       4       7.065379       0.055556
       5      12.317848       0.000000
       6      15.241258       0.000000
       7      16.065999       0.000000
       8      18.147891       0.000000
       9      22.557679       0.000000
      10      23.433128       0.000000
      11      24.605072       0.000000
      12      27.530640       0.000000

 52/72 kpoint (Cartesian) = 0.250000 0.583333 1.250000 (2139 pws)
       1      -1.774659       0.055556
       2       1.039799       0.055556
       3       5.195838       0.055556
       4       7.036500       0.055556
       5      12.495433       0.000000
       6      14.908269       0.000000
       7      17.771493       0.000000
       8      18.230247       0.000000
       9      20.862807       0.000000
      10      23.029192       0.000000
      11      25.370868       0.000000
      12      26.193198       0.000000

 53/72 kpoint (Cartesian) = 0.166667 0.500000 1.333333 (2147 pws)
       1      -1.979351       0.055556
       2       1.322896       0.055556
       3       4.995201       0.055556
       4       7.314308       0.055556
       5      12.887462       0.000000
       6      14.607813       0.000000
       7      17.792602       0.000000
       8      18.552562       0.000000
       9      20.524875       0.000000
      10      22.189806       0.000000
      11      23.994414       0.000000
      12      28.572361       0.000000

 54/72 kpoint (Cartesian) = 0.416667 0.583333 1.083333 (2133 pws)
       1      -2.831859       0.055556
       2       2.627090       0.055556
       3       5.026714       0.055556
       4       7.822834       0.055556
       5      13.480727       0.000000
       6      14.429480       0.000000
       7      16.585632       0.000000
       8      17.736190       0.000000
       9      20.403818       0.000000
      10      22.733076       0.000000
      11      24.552370       0.000000
      12      27.265002       0.000000

 55/72 kpoint (Cartesian) = 0.500000 0.666667 1.000000 (2133 pws)
       1      -3.663200       0.027778
       2       4.038031       0.027778
       3       5.552890       0.027778
       4       8.449297       0.027778
       5      13.981317       0.000000
       6      14.198155       0.000000
       7      15.464643       0.000000
       8      17.293477       0.000000
       9      19.215253       0.000000
      10      23.650419       0.000000
      11      24.565004       0.000000
      12      25.684062       0.000000

 56/72 kpoint (Cartesian) = 0.333333 0.833333 1.000000 (2121 pws)
       1      -3.020033       0.027778
       2       3.500894       0.027778
       3       5.981109       0.027778
       4       6.636523       0.027778
       5      11.224904       0.000000
       6      12.322864       0.000000
       7      18.267362       0.000000
       8      20.202926       0.000000
       9      22.768394       0.000000
      10      25.492487       0.000000
      11      25.529128       0.000000
      12      26.291562       0.000000

 57/72 kpoint (Cartesian) = 0.250000 0.750000 1.083333 (2133 pws)
       1      -2.185406       0.055556
       2       2.333146       0.055556
       3       5.090008       0.055556
       4       6.285649       0.055556
       5      11.581662       0.000000
       6      13.298853       0.000000
       7      17.667266       0.000000
       8      20.566345       0.000000
       9      23.766921       0.000000
      10      24.301905       0.000000
      11      25.989258       0.000000
      12      27.989585       0.000000

 58/72 kpoint (Cartesian) = 0.166667 0.666667 1.166667 (2139 pws)
       1      -1.333133       0.055556
       2       1.281574       0.055556
       3       4.324114       0.055556
       4       6.304512       0.055556
       5      11.756688       0.000000
       6      15.205795       0.000000
       7      17.151200       0.000000
       8      20.354955       0.000000
       9      21.187915       0.000000
      10      24.730975       0.000000
      11      26.313674       0.000000
      12      26.802581       0.000000

 59/72 kpoint (Cartesian) = 0.083333 0.583333 1.250000 (2144 pws)
       1      -1.204604       0.055556
       2       1.154324       0.055556
       3       3.884721       0.055556
       4       6.612676       0.055556
       5      12.131539       0.000000
       6      16.435269       0.000000
       7      17.746934       0.000000
       8      18.794332       0.000000
       9      20.136093       0.000000
      10      22.554723       0.000000
      11      26.229682       0.000000
      12      29.061409       0.000000

 60/72 kpoint (Cartesian) = 0.000000 0.500000 1.333333 (2147 pws)
       1      -1.981559       0.027778
       2       2.005145       0.027778
       3       3.989753       0.027778
       4       7.148003       0.027778
       5      12.724851       0.000000
       6      15.968050       0.000000
       7      16.856517       0.000000
       8      19.272185       0.000000
       9      20.649860       0.000000
      10      20.744624       0.000000
      11      26.557359       0.000000
      12      26.667065       0.000000

 61/72 kpoint (Cartesian) = 0.166667 0.833333 1.000000 (2141 pws)
       1      -1.652293       0.027778
       2       1.715399       0.027778
       3       5.567685       0.027778
       4       5.846250       0.027778
       5      10.911568       0.000000
       6      11.413164       0.000000
       7      20.098578       0.000000
       8      22.530200       0.000000
       9      24.374425       0.000000
      10      24.893366       0.000000
      11      27.403370       0.000000
      12      27.962728       0.000000

 62/72 kpoint (Cartesian) = 0.083333 0.750000 1.083333 (2144 pws)
       1      -0.765162       0.055556
       2       0.838211       0.055556
       3       4.553164       0.055556
       4       5.785220       0.055556
       5      11.234216       0.000000
       6      12.877945       0.000000
       7      19.492606       0.000000
       8      21.589414       0.000000
       9      22.859207       0.000000
      10      25.259638       0.000000
      11      26.873177       0.000000
      12      28.789088       0.000000

 63/72 kpoint (Cartesian) = 0.000000 0.666667 1.166667 (2141 pws)
       1      -0.481899       0.027778
       2       0.638091       0.027778
       3       3.783124       0.027778
       4       6.082287       0.027778
       5      11.568506       0.000000
       6      15.056020       0.000000
       7      18.849534       0.000000
       8      19.194547       0.000000
       9      22.249861       0.000000
      10      23.084937       0.000000
      11      28.748716       0.000000
      12      29.220372       0.000000

 64/72 kpoint (Cartesian) = 0.000000 0.833333 1.000000 (2138 pws)
       1      -0.047952       0.013889
       2      -0.047952       0.013889
       3       5.510010       0.013889
       4       5.510010       0.013889
       5      10.960352       0.000000
       6      10.960352       0.000000
       7      22.130769       0.000000
       8      22.130769       0.000000
       9      24.952326       0.000000
      10      24.952326       0.000000
      11      27.026585       0.000000
      12      27.026585       0.000000

 65/72 kpoint (Cartesian) = 0.333333 0.666667 1.000000 (2134 pws)
       1      -2.614054       0.027778
       2       2.825647       0.027778
       3       4.863283       0.027778
       4       6.773911       0.027778
       5      13.377658       0.000000
       6      14.090797       0.000000
       7      15.506401       0.000000
       8      19.868166       0.000000
       9      21.853146       0.000000
      10      23.312651       0.000000
      11      25.972530       0.000000
      12      26.490463       0.000000

 66/72 kpoint (Cartesian) = 0.250000 0.583333 1.083333 (2146 pws)
       1      -1.732931       0.055556
       2       1.724547       0.055556
       3       4.392881       0.055556
       4       6.232310       0.055556
       5      13.718182       0.000000
       6      14.607538       0.000000
       7      15.950426       0.000000
       8      20.272732       0.000000
       9      20.809647       0.000000
      10      23.406424       0.000000
      11      25.709789       0.000000
      12      28.370166       0.000000

 67/72 kpoint (Cartesian) = 0.166667 0.500000 1.166667 (2144 pws)
       1      -1.192419       0.027778
       2       1.065310       0.027778
       3       4.290166       0.027778
       4       6.026414       0.027778
       5      13.793981       0.000000
       6      14.431523       0.000000
       7      17.770171       0.000000
       8      18.488584       0.000000
       9      20.437112       0.000000
      10      24.854448       0.000000
      11      25.947015       0.000000
      12      26.521286       0.000000

 68/72 kpoint (Cartesian) = 0.166667 0.666667 1.000000 (2147 pws)
       1      -1.327960       0.027778
       2       1.535704       0.027778
       3       4.553714       0.027778
       4       5.428110       0.027778
       5      13.049483       0.000000
       6      13.391206       0.000000
       7      17.006286       0.000000
       8      21.052470       0.000000
       9      22.501792       0.000000
      10      24.603488       0.000000
      11      27.811070       0.000000
      12      28.153036       0.000000

 69/72 kpoint (Cartesian) = 0.083333 0.583333 1.083333 (2159 pws)
       1      -0.566268       0.055556
       2       0.827282       0.055556
       3       4.050225       0.055556
       4       5.200558       0.055556
       5      13.435340       0.000000
       6      15.194433       0.000000
       7      16.570078       0.000000
       8      18.449416       0.000000
       9      22.948189       0.000000
      10      25.661953       0.000000
      11      26.630254       0.000000
      12      28.138981       0.000000

 70/72 kpoint (Cartesian) = 0.000000 0.500000 1.166667 (2150 pws)
       1      -0.883512       0.027778
       2       1.130832       0.027778
       3       3.865562       0.027778
       4       5.545103       0.027778
       5      13.854502       0.000000
       6      15.597307       0.000000
       7      16.275262       0.000000
       8      18.078993       0.000000
       9      22.389108       0.000000
      10      23.859234       0.000000
      11      28.197141       0.000000
      12      28.382876       0.000000

 71/72 kpoint (Cartesian) = 0.000000 0.666667 1.000000 (2158 pws)
       1       0.106901       0.013889
       2       0.106901       0.013889
       3       4.702754       0.013889
       4       4.702754       0.013889
       5      13.044521       0.000000
       6      13.044521       0.000000
       7      18.884314       0.000000
       8      18.884314       0.000000
       9      25.040944       0.000000
      10      25.040944       0.000000
      11      27.357525       0.000000
      12      27.357525       0.000000

 72/72 kpoint (Cartesian) = 0.000000 0.500000 1.000000 (2148 pws)
       1       0.194279       0.006944
       2       0.194279       0.006944
       3       4.363058       0.006944
       4       4.363058       0.006944
       5      15.139545       0.000000
       6      15.139545       0.000000
       7      16.418723       0.000000
       8      16.418723       0.000000
       9      25.091958       0.000000
      10      25.091958       0.000000
      11      27.534487       0.000000
      12      27.534488       0.000000



 --------------------------------------------
 !FINAL_ETOT_IS -217.6896746317516147 eV
 --------------------------------------------






  |CLASS_NAME---------|NAME---------------|TIME(Sec)-----|CALLS----|AVG------|PER%-------
                                      total        127.712        17      7.51    100.00%
                 Run_pw     plane_wave_line         127.70         1    127.70     99.99%
                Cell_PW        opt_cells_pw         127.53         1    127.53     99.86%
                    FFT               FFT3D          89.82     55770      0.00     70.33%
              Potential            v_of_rho           0.17         7      0.02      0.13%
               wavefunc             wfcinit           2.89         1      2.89      2.26%
              Hamilt_PW      diagH_subspace          20.06       432      0.05     15.71%
              Hamilt_PW               h_psi         101.32     20527      0.00     79.33%
              Hamilt_PW                vloc         100.43     20527      0.00     78.64%
                 Hamilt        diagH_LAPACK           0.18       432      0.00      0.14%
                   Ions         opt_ions_pw         124.57         1    124.57     97.54%
              Electrons     self_consistent         124.57         1    124.57     97.54%
              Electrons             c_bands          73.35         3     24.45     57.43%
                 Hamilt            diagH_pw         110.55       432      0.26     86.56%
               Diago_CG                diag          92.58       432      0.21     72.49%
              electrons             c_bands          50.26         3     16.75     39.35%
                 Charge            sum_band          12.66         6      2.11      9.91%
                 Charge             mix_rho           0.23         6      0.04      0.18%
 ----------------------------------------------------------------------------------------

 CLASS_NAME---------|NAME---------------|MEMORY(MB)--------
                                         41.9064
             wavefunc                 evc        28.4634
         Charge_Pulay                Rrho         2.8477
         Charge_Pulay               dRrho         2.4917
         Charge_Pulay                drho         2.4917
 ----------------------------------------------------------

 Start  Time  : Fri Sep 10 11:31:50 2021
 Finish Time  : Fri Sep 10 11:33:58 2021
 Total  Time  : 0 h 2 mins 8 secs 
