 *********************************************************
 *                                                       *
 *                  WELCOME TO ABACUS v3.0               *
 *                                                       *
 *            'Atomic-orbital Based Ab-initio            *
 *                  Computation at UStc'                 *
 *                                                       *
 *          Website: http://abacus.ustc.edu.cn/          *
 *                                                       *
 *********************************************************
 Wed May  3 01:05:26 2023
 MAKE THE DIR         : OUT.oftest/
Notice: symbol 'mg_locpsp' is not an element symbol!!!! set the covalent radius to be 0.
 UNIFORM GRID DIM     : 36 * 36 * 36
 UNIFORM GRID DIM(BIG): 36 * 36 * 36
func,idXC_GGA_X_PBE 101
func,idXC_GGA_C_PBE 130
 DONE(0.235288   SEC) : SETUP UNITCELL
 DONE(0.291492   SEC) : SYMMETRY
 DONE(0.29172    SEC) : INIT K-POINTS
 ---------------------------------------------------------
 Self-consistent calculations for electrons
 ---------------------------------------------------------
 SPIN    KPOINTS         PROCESSORS  
 1       1               1           
 ---------------------------------------------------------
 Use plane wave basis
 ---------------------------------------------------------
 ELEMENT NATOM       XC          
 Mg      1           
 ---------------------------------------------------------
 Initial plane wave basis and FFT box
 ---------------------------------------------------------
 DONE(0.294058   SEC) : INIT BASIS
 DONE(0.294086   SEC) : INIT PHI
 DONE(0.370098   SEC) : LOCAL POTENTIAL
 DONE(0.370131   SEC) : NON-LOCAL POTENTIAL
 START CHARGE      : atomic
 DONE(0.529066   SEC) : INIT POTENTIAL
 DONE(0.529377   SEC) : INIT OPTIMIZATION
Default type: double
nnode = 10
nlayer = 3
feg_net_F = 0.540933
 DONE(0.600558   SEC) : INIT KEDF
======================== Running OFDFT ========================
Iter        Etot(Ha)          Theta      PotNorm     deltaE(Ha)
0     -8.454443652605e-01   2.000e-01   1.113e-01   -8.454e-01  
1     -8.886301120037e-01   1.006e-01   7.958e-02   -4.319e-02  
2     -8.898135744250e-01   1.130e-02   1.285e-02   -1.183e-03  
3     -8.898602177727e-01   2.398e-03   7.231e-03   -4.664e-05  
4     -8.898867826602e-01   3.231e-03   3.244e-03   -2.656e-05  
5     -8.898886483573e-01   3.766e-04   8.054e-04   -1.866e-06  
6     -8.898890701660e-01   4.924e-04   1.692e-04   -4.218e-07  
7     -8.898890800272e-01   3.818e-05   6.708e-05   -9.861e-09  

  |CLASS_NAME---------|NAME---------------|TIME(Sec)-----|CALLS----|AVG------|PER%-------
                       total               368.57         21        18        1e+02     %
   Driver              driver_line         368.56         1         3.7e+02   1e+02     %
   PW_Basis            setuptransform      0.20807        1         0.21      0.056     %
   PW_Basis            recip2real          7.8233         3688      0.0021    2.1       %
   PW_Basis            gathers_scatterp    0.66999        3688      0.00018   0.18      %
   Potential           update_from_charge  11.613         185       0.063     3.2       %
   Potential           cal_v_eff           11.61          185       0.063     3.1       %
   H_Hartree_pw        v_hartree           0.91216        185       0.0049    0.25      %
   PW_Basis            real2recip          7.6455         3688      0.0021    2.1       %
   PW_Basis            gatherp_scatters    0.42827        3688      0.00012   0.12      %
   PotXC               cal_v_eff           10.665         185       0.058     2.9       %
   XC_Functional       v_xc                182.11         93        2         49        %
   XC_Functional       v_xc_libxc          10.643         185       0.058     2.9       %
   ESolver_OF          Run                 367.97         1         3.7e+02   1e+02     %
   KEDF_vW             vw_potential        0.89428        184       0.0049    0.24      %
 ----------------------------------------------------------------------------------------

 START  Time  : Wed May  3 01:05:26 2023
 FINISH Time  : Wed May  3 01:11:34 2023
 TOTAL  Time  : 3.7e+02
 SEE INFORMATION IN : OUT.oftest/
