 *********************************************************
 *                                                       *
 *                  WELCOME TO ABACUS v3.0               *
 *                                                       *
 *            'Atomic-orbital Based Ab-initio            *
 *                  Computation at UStc'                 *
 *                                                       *
 *          Website: http://abacus.ustc.edu.cn/          *
 *                                                       *
 *********************************************************
 Tue May  2 23:18:21 2023
 MAKE THE DIR         : OUT.oftest/
Notice: symbol 'al_locpsp' is not an element symbol!!!! set the covalent radius to be 0.
 UNIFORM GRID DIM     : 25 * 25 * 25
 UNIFORM GRID DIM(BIG): 25 * 25 * 25
func,idXC_GGA_X_PBE 101
func,idXC_GGA_C_PBE 130
 DONE(0.0955875  SEC) : SETUP UNITCELL
 DONE(0.149557   SEC) : SYMMETRY
 DONE(0.149799   SEC) : INIT K-POINTS
 ---------------------------------------------------------
 Self-consistent calculations for electrons
 ---------------------------------------------------------
 SPIN    KPOINTS         PROCESSORS  
 1       1               1           
 ---------------------------------------------------------
 Use plane wave basis
 ---------------------------------------------------------
 ELEMENT NATOM       XC          
 Al      1           
 ---------------------------------------------------------
 Initial plane wave basis and FFT box
 ---------------------------------------------------------
 DONE(0.150919   SEC) : INIT BASIS
 DONE(0.150941   SEC) : INIT PHI
 DONE(0.185966   SEC) : LOCAL POTENTIAL
 DONE(0.186001   SEC) : NON-LOCAL POTENTIAL
 START CHARGE      : atomic
 DONE(0.244611   SEC) : INIT POTENTIAL
 DONE(0.244659   SEC) : INIT OPTIMIZATION
Default type: double
nnode = 10
nlayer = 3
feg_net_F = 0.540933
 DONE(0.306369   SEC) : INIT KEDF
======================== Running OFDFT ========================
Iter        Etot(Ha)          Theta      PotNorm     deltaE(Ha)
0     -2.018537351823e+00   2.000e-01   2.105e-01   -2.019e+00  
1     -2.019027647209e+00   7.520e-03   2.174e-01   -4.903e-04  
2     -2.096035528433e+00   8.322e-02   1.001e-01   -7.701e-02  
3     -2.097576180729e+00   1.289e-02   8.048e-03   -1.541e-03  
4     -2.097585223728e+00   5.849e-04   3.431e-03   -9.043e-06  
5     -2.097588884541e+00   8.700e-04   2.801e-04   -3.661e-06  
6     -2.097588899557e+00   3.650e-05   7.955e-05   -1.502e-08  
7     -2.097588900834e+00   1.355e-05   1.232e-05   -1.277e-09  

  |CLASS_NAME---------|NAME---------------|TIME(Sec)-----|CALLS----|AVG------|PER%-------
                       total               146.2          21        7         1e+02     %
   Driver              driver_line         146.19         1         1.5e+02   1e+02     %
   PW_Basis            recip2real          3.0354         4268      0.00071   2.1       %
   PW_Basis            gathers_scatterp    0.23669        4268      5.5e-05   0.16      %
   Potential           update_from_charge  4.517          214       0.021     3.1       %
   Potential           cal_v_eff           4.5156         214       0.021     3.1       %
   H_Hartree_pw        v_hartree           0.37173        214       0.0017    0.25      %
   PW_Basis            real2recip          2.9939         4268      0.0007    2         %
   PW_Basis            gatherp_scatters    0.13532        4268      3.2e-05   0.093     %
   PotXC               cal_v_eff           4.1312         214       0.019     2.8       %
   XC_Functional       v_xc                72.67          107       0.68      50        %
   XC_Functional       v_xc_libxc          4.1232         214       0.019     2.8       %
   ESolver_OF          Run                 145.89         1         1.5e+02   1e+02     %
   KEDF_vW             vw_potential        0.37871        213       0.0018    0.26      %
 ----------------------------------------------------------------------------------------

 START  Time  : Tue May  2 23:18:21 2023
 FINISH Time  : Tue May  2 23:20:47 2023
 TOTAL  Time  : 1.5e+02
 SEE INFORMATION IN : OUT.oftest/
