 *********************************************************
 *                                                       *
 *                  WELCOME TO ABACUS v3.0               *
 *                                                       *
 *            'Atomic-orbital Based Ab-initio            *
 *                  Computation at UStc'                 *
 *                                                       *
 *          Website: http://abacus.ustc.edu.cn/          *
 *                                                       *
 *********************************************************
 Tue May  2 12:46:29 2023
 MAKE THE DIR         : OUT.blpstest/
Notice: symbol 'al_locpsp' is not an element symbol!!!! set the covalent radius to be 0.
 UNIFORM GRID DIM     : 27 * 27 * 27
 UNIFORM GRID DIM(BIG): 27 * 27 * 27
func,idXC_GGA_X_PBE 101
func,idXC_GGA_C_PBE 130
 DONE(0.107138   SEC) : SETUP UNITCELL
 DONE(0.161733   SEC) : SYMMETRY
 DONE(0.512754   SEC) : INIT K-POINTS
 ---------------------------------------------------------
 Self-consistent calculations for electrons
 ---------------------------------------------------------
 SPIN    KPOINTS         PROCESSORS  
 1       256             1           
 ---------------------------------------------------------
 Use plane wave basis
 ---------------------------------------------------------
 ELEMENT NATOM       XC          
 Al      1           
 ---------------------------------------------------------
 Initial plane wave basis and FFT box
 ---------------------------------------------------------
 DONE(0.513718   SEC) : INIT BASIS
 DONE(0.513746   SEC) : INIT PHI
 DONE(0.553402   SEC) : LOCAL POTENTIAL
 DONE(0.55344    SEC) : NON-LOCAL POTENTIAL
 START CHARGE      : atomic
 DONE(0.624334   SEC) : INIT POTENTIAL
 DONE(0.624387   SEC) : INIT OPTIMIZATION
Default type: double
 DONE(0.625237   SEC) : INIT KEDF
======================== Running OFDFT ========================
Iter        Etot(Ha)          Theta      PotNorm     deltaE(Ha)
0     -2.022219230736e+00   2.000e-01   1.961e-01   -2.022e+00  
1     -2.100490697806e+00   1.035e-01   1.614e-01   -7.827e-02  
2     -2.105379816575e+00   1.281e-02   4.795e-02   -4.889e-03  
3     -2.105748630792e+00   6.756e-03   1.455e-02   -3.688e-04  
4     -2.105762334359e+00   8.297e-04   1.236e-03   -1.370e-05  
5     -2.105762896432e+00   3.059e-04   8.915e-05   -5.621e-07  
6     -2.105762897988e+00   9.924e-06   7.336e-06   -1.556e-09  

  |CLASS_NAME---------|NAME---------------|TIME(Sec)-----|CALLS----|AVG------|PER%-------
                       total               12.306         21        0.59      1e+02     %
   Driver              driver_line         12.296         1         12        1e+02     %
   PW_Basis            recip2real          2.6023         1932      0.0013    21        %
   PW_Basis            gathers_scatterp    0.2791         1932      0.00014   2.3       %
   Potential           update_from_charge  6.8485         149       0.046     56        %
   Potential           cal_v_eff           6.8464         149       0.046     56        %
   H_Hartree_pw        v_hartree           0.59507        149       0.004     4.8       %
   PW_Basis            real2recip          3.1092         1932      0.0016    25        %
   PW_Basis            gatherp_scatters    0.25577        1932      0.00013   2.1       %
   PotXC               cal_v_eff           6.2082         149       0.042     50        %
   XC_Functional       v_xc                5.7837         75        0.077     47        %
   XC_Functional       v_xc_libxc          6.1832         149       0.041     50        %
   ESolver_OF          Run                 11.678         1         12        95        %
   KEDF_LKT            LKT_potential       4.1003         148       0.028     33        %
   KEDF_vW             vw_potential        0.49177        148       0.0033    4         %
 ----------------------------------------------------------------------------------------

 START  Time  : Tue May  2 12:46:29 2023
 FINISH Time  : Tue May  2 12:46:41 2023
 TOTAL  Time  : 12
 SEE INFORMATION IN : OUT.blpstest/
