 *********************************************************
 *                                                       *
 *                  WELCOME TO ABACUS v3.0               *
 *                                                       *
 *            'Atomic-orbital Based Ab-initio            *
 *                  Computation at UStc'                 *
 *                                                       *
 *          Website: http://abacus.ustc.edu.cn/          *
 *                                                       *
 *********************************************************
 Mon Apr 17 15:14:20 2023
 MAKE THE DIR         : OUT.blpstest/
Notice: symbol 'mg_locpsp' is not an element symbol!!!! set the covalent radius to be 0.
 UNIFORM GRID DIM     : 30 * 30 * 30
 UNIFORM GRID DIM(BIG): 30 * 30 * 30
func,idXC_GGA_X_PBE 101
func,idXC_GGA_C_PBE 130
 DONE(0.172992   SEC) : SETUP UNITCELL
 DONE(0.230157   SEC) : SYMMETRY
 DONE(0.54248    SEC) : INIT K-POINTS
 ---------------------------------------------------------
 Self-consistent calculations for electrons
 ---------------------------------------------------------
 SPIN    KPOINTS         PROCESSORS  
 1       286             1           
 ---------------------------------------------------------
 Use plane wave basis
 ---------------------------------------------------------
 ELEMENT NATOM       XC          
 Mg      1           
 ---------------------------------------------------------
 Initial plane wave basis and FFT box
 ---------------------------------------------------------
 DONE(0.544894   SEC) : INIT BASIS
 DONE(0.545013   SEC) : INIT PHI
 DONE(0.580873   SEC) : LOCAL POTENTIAL
 DONE(0.580915   SEC) : NON-LOCAL POTENTIAL
 START CHARGE      : atomic
 DONE(0.675339   SEC) : INIT POTENTIAL
 DONE(0.675443   SEC) : INIT OPTIMIZATION
 DONE(0.677393   SEC) : INIT KEDF
======================== Running OFDFT ========================
Iter        Etot(Ha)          Theta      PotNorm     deltaE(Ha)
0     -8.336125838410e-01   2.000e-01   9.436e-02   -8.336e-01  
1     -8.744399763045e-01   1.062e-01   5.402e-02   -4.083e-02  
2     -8.754710616596e-01   1.169e-02   1.515e-02   -1.031e-03  
3     -8.757862171846e-01   1.470e-02   1.390e-03   -3.152e-04  
4     -8.757872267301e-01   4.411e-04   3.410e-04   -1.010e-06  
5     -8.757872672569e-01   8.524e-05   2.483e-05   -4.053e-08  
6     -8.757872679394e-01   1.391e-05   2.009e-05   -6.825e-10  

  |CLASS_NAME---------|NAME---------------|TIME(Sec)-----|CALLS----|AVG------|PER%-------
                       total               11.328         21        0.54      1e+02     %
   Driver              driver_line         11.308         1         11        1e+02     %
   PW_Basis            setuptransform      0.13993        1         0.14      1.2       %
   PW_Basis            recip2real          1.7185         1322      0.0013    15        %
   PW_Basis            gathers_scatterp    0.15917        1322      0.00012   1.4       %
   Potential           update_from_charge  6.514          147       0.044     58        %
   Potential           cal_v_eff           6.5112         147       0.044     57        %
   H_Hartree_pw        v_hartree           0.50681        147       0.0034    4.5       %
   PW_Basis            real2recip          2.1568         1614      0.0013    19        %
   PW_Basis            gatherp_scatters    0.18082        1614      0.00011   1.6       %
   PotXC               cal_v_eff           5.9738         147       0.041     53        %
   XC_Functional       v_xc                5.3308         74        0.072     47        %
   XC_Functional       v_xc_libxc          5.8575         147       0.04      52        %
   ESolver_OF          Run                 10.65          1         11        94        %
   KEDF_TF             tf_potential        0.74827        146       0.0051    6.6       %
   KEDF_WT             wt_potential        2.7499         146       0.019     24        %
   KEDF_vW             vw_potential        0.46355        146       0.0032    4.1       %
 ----------------------------------------------------------------------------------------

 START  Time  : Mon Apr 17 15:14:20 2023
 FINISH Time  : Mon Apr 17 15:14:32 2023
 TOTAL  Time  : 12
 SEE INFORMATION IN : OUT.blpstest/
