 *********************************************************
 *                                                       *
 *                  WELCOME TO ABACUS v3.0               *
 *                                                       *
 *            'Atomic-orbital Based Ab-initio            *
 *                  Computation at UStc'                 *
 *                                                       *
 *          Website: http://abacus.ustc.edu.cn/          *
 *                                                       *
 *********************************************************
 Wed Dec 28 12:33:45 2022
 MAKE THE DIR         : OUT.blpstest/
Notice: symbol 'Li_locpsp' is not an element symbol!!!! set the covalent radius to be 0.
 UNIFORM GRID DIM     : 27 * 27 * 27
 UNIFORM GRID DIM(BIG): 27 * 27 * 27
func,idXC_GGA_X_PBE 101
func,idXC_GGA_C_PBE 130
 DONE(0.107251   SEC) : SETUP UNITCELL
 DONE(0.161753   SEC) : SYMMETRY
 DONE(0.502651   SEC) : INIT K-POINTS
 ---------------------------------------------------------
 Self-consistent calculations for electrons
 ---------------------------------------------------------
 SPIN    KPOINTS         PROCESSORS  
 1       256             1           
 ---------------------------------------------------------
 Use plane wave basis
 ---------------------------------------------------------
 ELEMENT NATOM       XC          
 Li      1           
 ---------------------------------------------------------
 Initial plane wave basis and FFT box
 ---------------------------------------------------------
 DONE(0.605998   SEC) : INIT PLANEWAVE
 MEMORY FOR PSI (MB)  : 21.25
 DONE(0.616979   SEC) : LOCAL POTENTIAL
 DONE(0.617025   SEC) : NON-LOCAL POTENTIAL
 DONE(0.617102   SEC) : INIT BASIS
 START CHARGE      : atomic
 DONE(0.660407   SEC) : INIT SCF
 ITER   ETOT(eV)       EDIFF(eV)      DRHO       TIME(s)    
 CG1    -7.465186e+00  0.000000e+00   9.881e-03  2.362e+01  
 CG2    -7.545891e+00  -8.070517e-02  1.081e-03  5.999e+00  
 CG3    -7.546400e+00  -5.088595e-04  6.890e-08  7.028e+00  
 CG4    -7.546423e+00  -2.304076e-05  3.292e-08  1.568e+01  
 CG5    -7.546423e+00  -5.647878e-07  1.519e-09  1.000e+01  
 CG6    -7.546423e+00  -5.282944e-09  4.283e-11  8.949e+00  

  |CLASS_NAME---------|NAME---------------|TIME(Sec)-----|CALLS----|AVG------|PER%-------
                       total               71.962         17        4.2       1e+02     %
   Driver              driver_line         71.95          1         72        1e+02     %
   ESolver_KS_PW       Run                 71.337         1         71        99        %
   Potential           update_from_charge  0.19598        7         0.028     0.27      %
   Potential           cal_v_eff           0.19478        7         0.028     0.27      %
   PotXC               cal_v_eff           0.17835        7         0.025     0.25      %
   XC_Functional       v_xc                40.654         4         10        56        %
   XC_Functional       v_xc_libxc          0.17785        7         0.025     0.25      %
   HSolverPW           solve               71.074         7         10        99        %
   DiagoIterAssist     diagH_subspace      12.006         1536      0.0078    17        %
   OperatorPW          hPsi                66.693         38337     0.0017    93        %
   Operator            EkineticPW          0.22631        38337     5.9e-06   0.31      %
   Operator            VeffPW              66.25          38337     0.0017    92        %
   PW_Basis_K          recip2real          33.575         45475     0.00074   47        %
   PW_Basis_K          gathers_scatterp    2.2225         45475     4.9e-05   3.1       %
   PW_Basis_K          real2recip          30.52          44481     0.00069   42        %
   PW_Basis_K          gatherp_scatters    0.80754        44481     1.8e-05   1.1       %
   DiagoIterAssist     LAPACK_subspace     0.10418        1536      6.8e-05   0.14      %
   DiagoCG             diag_once           57.59          1792      0.032     80        %
   ElecStatePW         psiToRho            0.77106        7         0.11      1.1       %
 ----------------------------------------------------------------------------------------

 START  Time  : Wed Dec 28 12:33:45 2022
 FINISH Time  : Wed Dec 28 12:34:57 2022
 TOTAL  Time  : 72
 SEE INFORMATION IN : OUT.blpstest/
