 *********************************************************
 *                                                       *
 *                  WELCOME TO ABACUS v3.0               *
 *                                                       *
 *            'Atomic-orbital Based Ab-initio            *
 *                  Computation at UStc'                 *
 *                                                       *
 *          Website: http://abacus.ustc.edu.cn/          *
 *                                                       *
 *********************************************************
 Tue May  2 12:45:52 2023
 MAKE THE DIR         : OUT.blpstest/
Notice: symbol 'al_locpsp' is not an element symbol!!!! set the covalent radius to be 0.
 UNIFORM GRID DIM     : 27 * 27 * 27
 UNIFORM GRID DIM(BIG): 27 * 27 * 27
func,idXC_GGA_X_PBE 101
func,idXC_GGA_C_PBE 130
 DONE(0.103527   SEC) : SETUP UNITCELL
 DONE(0.154896   SEC) : SYMMETRY
 DONE(0.508769   SEC) : INIT K-POINTS
 ---------------------------------------------------------
 Self-consistent calculations for electrons
 ---------------------------------------------------------
 SPIN    KPOINTS         PROCESSORS  
 1       256             1           
 ---------------------------------------------------------
 Use plane wave basis
 ---------------------------------------------------------
 ELEMENT NATOM       XC          
 Al      1           
 ---------------------------------------------------------
 Initial plane wave basis and FFT box
 ---------------------------------------------------------
 DONE(0.509763   SEC) : INIT BASIS
 DONE(0.509788   SEC) : INIT PHI
 DONE(0.549582   SEC) : LOCAL POTENTIAL
 DONE(0.549643   SEC) : NON-LOCAL POTENTIAL
 START CHARGE      : atomic
 DONE(0.621038   SEC) : INIT POTENTIAL
 DONE(0.621089   SEC) : INIT OPTIMIZATION
Default type: double
 DONE(0.621975   SEC) : INIT KEDF
======================== Running OFDFT ========================
Iter        Etot(Ha)          Theta      PotNorm     deltaE(Ha)
0     -2.022950786453e+00   2.000e-01   1.882e-01   -2.023e+00  
1     -2.028050309555e+00   2.987e-02   2.108e-01   -5.100e-03  
2     -2.100228453395e+00   8.632e-02   1.299e-01   -7.218e-02  
3     -2.105307085866e+00   1.635e-02   1.539e-02   -5.079e-03  
4     -2.105366709776e+00   3.014e-03   2.379e-03   -5.962e-05  
5     -2.105367765821e+00   2.527e-04   7.594e-04   -1.056e-06  
6     -2.105367952834e+00   1.826e-04   5.034e-05   -1.870e-07  
7     -2.105367953267e+00   4.765e-06   3.810e-06   -4.323e-10  

  |CLASS_NAME---------|NAME---------------|TIME(Sec)-----|CALLS----|AVG------|PER%-------
                       total               12.185         21        0.58      1e+02     %
   Driver              driver_line         12.177         1         12        1e+02     %
   PW_Basis            recip2real          2.5934         2166      0.0012    21        %
   PW_Basis            gathers_scatterp    0.25608        2166      0.00012   2.1       %
   Potential           update_from_charge  6.7923         167       0.041     56        %
   Potential           cal_v_eff           6.7901         167       0.041     56        %
   H_Hartree_pw        v_hartree           0.5575         167       0.0033    4.6       %
   PW_Basis            real2recip          2.8823         2166      0.0013    24        %
   PW_Basis            gatherp_scatters    0.25312        2166      0.00012   2.1       %
   PotXC               cal_v_eff           6.1868         167       0.037     51        %
   XC_Functional       v_xc                5.7508         84        0.068     47        %
   XC_Functional       v_xc_libxc          6.1611         167       0.037     51        %
   ESolver_OF          Run                 11.561         1         12        95        %
   KEDF_LKT            LKT_potential       4.0293         166       0.024     33        %
   KEDF_vW             vw_potential        0.49336        166       0.003     4         %
 ----------------------------------------------------------------------------------------

 START  Time  : Tue May  2 12:45:52 2023
 FINISH Time  : Tue May  2 12:46:04 2023
 TOTAL  Time  : 12
 SEE INFORMATION IN : OUT.blpstest/
