 *********************************************************
 *                                                       *
 *                  WELCOME TO ABACUS v3.0               *
 *                                                       *
 *            'Atomic-orbital Based Ab-initio            *
 *                  Computation at UStc'                 *
 *                                                       *
 *          Website: http://abacus.ustc.edu.cn/          *
 *                                                       *
 *********************************************************
 Wed Dec 28 12:40:33 2022
 MAKE THE DIR         : OUT.blpstest/
Notice: symbol 'mg_locpsp' is not an element symbol!!!! set the covalent radius to be 0.
 UNIFORM GRID DIM     : 30 * 30 * 30
 UNIFORM GRID DIM(BIG): 30 * 30 * 30
func,idXC_GGA_X_PBE 101
func,idXC_GGA_C_PBE 130
 DONE(0.167695   SEC) : SETUP UNITCELL
 DONE(0.233529   SEC) : SYMMETRY
 DONE(0.602967   SEC) : INIT K-POINTS
 ---------------------------------------------------------
 Self-consistent calculations for electrons
 ---------------------------------------------------------
 SPIN    KPOINTS         PROCESSORS  
 1       286             1           
 ---------------------------------------------------------
 Use plane wave basis
 ---------------------------------------------------------
 ELEMENT NATOM       XC          
 Mg      1           
 ---------------------------------------------------------
 Initial plane wave basis and FFT box
 ---------------------------------------------------------
 DONE(0.742271   SEC) : INIT PLANEWAVE
 MEMORY FOR PSI (MB)  : 46.8957
 DONE(0.764037   SEC) : LOCAL POTENTIAL
 DONE(0.764136   SEC) : NON-LOCAL POTENTIAL
 DONE(0.764291   SEC) : INIT BASIS
 START CHARGE      : atomic
 DONE(0.841891   SEC) : INIT SCF
 ITER   ETOT(eV)       EDIFF(eV)      DRHO       TIME(s)    
 CG1    -2.349806e+01  0.000000e+00   3.231e-02  1.766e+01  
 CG2    -2.375274e+01  -2.546778e-01  3.158e-03  6.248e+00  
 CG3    -2.375640e+01  -3.660123e-03  5.715e-06  6.825e+00  
 CG4    -2.375656e+01  -1.599927e-04  2.151e-06  9.667e+00  
 CG5    -2.375657e+01  -9.065031e-06  2.131e-07  4.341e+00  
 CG6    -2.375657e+01  -1.558067e-07  1.039e-09  4.603e+00  
 CG7    -2.375657e+01  -7.629696e-09  2.190e-11  7.017e+00  

  |CLASS_NAME---------|NAME---------------|TIME(Sec)-----|CALLS----|AVG------|PER%-------
                       total               57.221         17        3.4       1e+02     %
   Driver              driver_line         57.206         1         57        1e+02     %
   PW_Basis            setuptransform      0.14411        1         0.14      0.25      %
   ESolver_KS_PW       Run                 56.448         1         56        99        %
   Potential           update_from_charge  0.18014        8         0.023     0.31      %
   Potential           cal_v_eff           0.17844        8         0.022     0.31      %
   PotXC               cal_v_eff           0.16473        8         0.021     0.29      %
   XC_Functional       v_xc                35.875         4         9         63        %
   XC_Functional       v_xc_libxc          0.16421        8         0.021     0.29      %
   HSolverPW           solve               56.205         7         8         98        %
   DiagoIterAssist     diagH_subspace      10.674         2002      0.0053    19        %
   OperatorPW          hPsi                51.859         48814     0.0011    91        %
   Operator            EkineticPW          0.20398        48814     4.2e-06   0.36      %
   Operator            VeffPW              51.526         48814     0.0011    90        %
   PW_Basis_K          recip2real          25.898         61012     0.00042   45        %
   PW_Basis_K          gathers_scatterp    2.0261         61012     3.3e-05   3.5       %
   PW_Basis_K          real2recip          24.491         58824     0.00042   43        %
   PW_Basis_K          gatherp_scatters    0.50507        58824     8.6e-06   0.88      %
   DiagoCG             diag_once           43.906         2002      0.022     77        %
   ElecStatePW         psiToRho            0.96735        7         0.14      1.7       %
 ----------------------------------------------------------------------------------------

 START  Time  : Wed Dec 28 12:40:33 2022
 FINISH Time  : Wed Dec 28 12:41:31 2022
 TOTAL  Time  : 58
 SEE INFORMATION IN : OUT.blpstest/
