 *********************************************************
 *                                                       *
 *                  WELCOME TO ABACUS v3.0               *
 *                                                       *
 *            'Atomic-orbital Based Ab-initio            *
 *                  Computation at UStc'                 *
 *                                                       *
 *          Website: http://abacus.ustc.edu.cn/          *
 *                                                       *
 *********************************************************
 Mon Jul 24 14:11:43 2023
 MAKE THE DIR         : OUT.blpstest/
Notice: symbol 'Ga_locpsp' is not an element symbol!!!! set the covalent radius to be 0.
Notice: symbol 'Sb_locpsp' is not an element symbol!!!! set the covalent radius to be 0.
 UNIFORM GRID DIM     : 45 * 45 * 45
 UNIFORM GRID DIM(BIG): 45 * 45 * 45
func,idXC_GGA_X_PBE 101
func,idXC_GGA_C_PBE 130
 DONE(0.642666   SEC) : SETUP UNITCELL
 DONE(0.746636   SEC) : SYMMETRY
 DONE(1.13465    SEC) : INIT K-POINTS
 ---------------------------------------------------------
 Self-consistent calculations for electrons
 ---------------------------------------------------------
 SPIN    KPOINTS         PROCESSORS  
 1       256             1           
 ---------------------------------------------------------
 Use plane wave basis
 ---------------------------------------------------------
 ELEMENT NATOM       XC          
 Ga      1           
 Sb      1           
 ---------------------------------------------------------
 Initial plane wave basis and FFT box
 ---------------------------------------------------------
 DONE(1.39365    SEC) : INIT PLANEWAVE
 MEMORY FOR PSI (MB)  : 124.137
 DONE(1.48365    SEC) : LOCAL POTENTIAL
 DONE(1.48385    SEC) : NON-LOCAL POTENTIAL
 DONE(1.48407    SEC) : INIT BASIS
 START CHARGE      : atomic
 DONE(1.95114    SEC) : INIT SCF
 ITER   ETOT(eV)       EDIFF(eV)      DRHO       TIME(s)    
 CG1    -2.044196e+02  0.000000e+00   1.514e+00  5.234e+02  
 CG2    -2.072504e+02  -2.830831e+00  1.273e-01  2.360e+02  
 CG3    -2.076834e+02  -4.330195e-01  4.677e-02  2.364e+02  
 CG4    -2.078090e+02  -1.255971e-01  1.665e-04  1.620e+02  
 CG5    -2.078124e+02  -3.342717e-03  8.597e-05  1.445e+02  
 CG6    -2.078126e+02  -2.429358e-04  9.826e-07  4.788e+01  
 CG7    -2.078126e+02  -8.787410e-06  1.493e-08  6.419e+01  
 CG8    -2.078126e+02  -1.051534e-07  1.486e-08  6.075e+01  
 CG9    -2.078126e+02  -4.465543e-08  3.525e-10  3.490e+01  

  |CLASS_NAME---------|NAME---------------|TIME(Sec)-----|CALLS----|AVG------|PER%-------
                       total               1512           17        89        1e+02     %
   Driver              driver_line         1511.9         1         1.5e+03   1e+02     %
   PW_Basis            setuptransform      0.55586        1         0.56      0.037     %
   PW_Basis_K          setuptransform      0.1697         1         0.17      0.011     %
   ESolver_KS_PW       Run                 1510.5         1         1.5e+03   1e+02     %
   PW_Basis            recip2real          0.59351        62        0.0096    0.039     %
   Potential           init_pot            0.3419         1         0.34      0.023     %
   Potential           update_from_charge  2.4372         10        0.24      0.16      %
   Potential           cal_v_eff           2.4231         10        0.24      0.16      %
   H_Hartree_pw        v_hartree           0.21198        10        0.021     0.014     %
   PW_Basis            real2recip          0.79441        98        0.0081    0.053     %
   PotXC               cal_v_eff           2.1966         10        0.22      0.15      %
   XC_Functional       v_xc                1003.7         5         2e+02     66        %
   XC_Functional       v_xc_libxc          2.1759         10        0.22      0.14      %
   Symmetry            rho_symmetry        0.16579        10        0.017     0.011     %
   HSolverPW           solve               1507.2         9         1.7e+02   1e+02     %
   WF_atomic           atomic_wfc          0.19613        256       0.00077   0.013     %
   WF_igk              get_sk              0.12827        512       0.00025   0.0085    %
   DiagoIterAssist     diagH_subspace      272.98         2304      0.12      18        %
   OperatorPW          hPsi                1386.1         82093     0.017     92        %
   Operator            EkineticPW          4.492          82093     5.5e-05   0.3       %
   Operator            VeffPW              1379.7         82093     0.017     91        %
   PW_Basis_K          recip2real          702.98         109742    0.0064    46        %
   PW_Basis_K          gathers_scatterp    86.814         109742    0.00079   5.7       %
   PW_Basis_K          real2recip          594            100525    0.0059    39        %
   PW_Basis_K          gatherp_scatters    24.634         100525    0.00025   1.6       %
   Operator            NonlocalPW          0.26333        82093     3.2e-06   0.017     %
   DiagoIterAssist     LAPACK_subspace     0.54666        2304      0.00024   0.036     %
   DiagoCG             diag_once           1166.5         2304      0.51      77        %
   ElecStatePW         psiToRho            64.11          9         7.1       4.2       %
   Charge              mix_rho             0.31553        8         0.039     0.021     %
 ----------------------------------------------------------------------------------------

 START  Time  : Mon Jul 24 14:11:43 2023
 FINISH Time  : Mon Jul 24 14:36:55 2023
 TOTAL  Time  : 1.5e+03
 SEE INFORMATION IN : OUT.blpstest/
