                                                                                     
                             WELCOME TO ABACUS v3.0                                  
                                                                                     
               'Atomic-orbital Based Ab-initio Computation at UStc'                  
                                                                                     
                     Website: http://abacus.ustc.edu.cn/                             
                                                                                     
    Version: Parallel, in development
    Processor Number is 1
    Start Time is Mon May 15 13:22:48 2023
                                                                                     
 ------------------------------------------------------------------------------------

 READING GENERAL INFORMATION
                           global_out_dir = OUT.oftest/
                           global_in_card = INPUT
                               pseudo_dir = 
                              orbital_dir = 
                                    DRANK = 1
                                    DSIZE = 1
                                   DCOLOR = 1
                                    GRANK = 1
                                    GSIZE = 1
 The esolver type has been set to : ofdft




 >>>>>>>>>>>>>>>>>>>>>>>>>>>>>>>>>>>>>>>>>>>>>>>>>>>>>>>>>>>>>>>>>>>>>>
 |                                                                    |
 | Reading atom information in unitcell:                              |
 | From the input file and the structure file we know the number of   |
 | different elments in this unitcell, then we list the detail        |
 | information for each element, especially the zeta and polar atomic |
 | orbital number for each element. The total atom number is counted. |
 | We calculate the nearest atom distance for each atom and show the  |
 | Cartesian and Direct coordinates for each atom. We list the file   |
 | address for atomic orbitals. The volume and the lattice vectors    |
 | in real and reciprocal space is also shown.                        |
 |                                                                    |
 <<<<<<<<<<<<<<<<<<<<<<<<<<<<<<<<<<<<<<<<<<<<<<<<<<<<<<<<<<<<<<<<<<<<<<




 READING UNITCELL INFORMATION
                                    ntype = 3
                 atom label for species 1 = Li
                 atom label for species 2 = Mg
                 atom label for species 3 = Al
                  lattice constant (Bohr) = 1.88973
              lattice constant (Angstrom) = 1

 READING ATOM TYPE 1
                               atom label = Li
                      L=0, number of zeta = 1
                      L=1, number of zeta = 1
                      L=2, number of zeta = 1
             number of atom for this type = 2
                      start magnetization = FALSE
                      start magnetization = FALSE

 READING ATOM TYPE 2
                               atom label = Mg
                      L=0, number of zeta = 1
                      L=1, number of zeta = 1
                      L=2, number of zeta = 1
             number of atom for this type = 4
                      start magnetization = FALSE
                      start magnetization = FALSE
                      start magnetization = FALSE
                      start magnetization = FALSE

 READING ATOM TYPE 3
                               atom label = Al
                      L=0, number of zeta = 1
                      L=1, number of zeta = 1
                      L=2, number of zeta = 1
             number of atom for this type = 2
                      start magnetization = FALSE
                      start magnetization = FALSE

                        TOTAL ATOM NUMBER = 8

 DIRECT COORDINATES
         atom                   x                   y                   z                 mag                  vx                  vy                  vz
     taud_Li1                   0                   0                   0                   0                   0                   0                   0
     taud_Li2                 0.5                 0.5                 0.5                   0                   0                   0                   0
     taud_Mg1                   0                   0            0.747914                   0                   0                   0                   0
     taud_Mg2                 0.5                 0.5            0.752086                   0                   0                   0                   0
     taud_Mg3                 0.5                 0.5            0.247914                   0                   0                   0                   0
     taud_Mg4                   0                   0            0.252086                   0                   0                   0                   0
     taud_Al1                 0.5                 0.5                   0                   0                   0                   0                   0
     taud_Al2                   0                   0                 0.5                   0                   0                   0                   0


                          Volume (Bohr^3) = 1204.31
                             Volume (A^3) = 178.46

 Lattice vectors: (Cartesian coordinate: in unit of a_0)
             +2.89671                  +0                  +0
                   +0            +5.21892                  +0
                   +0                  +0            +11.8047
 Reciprocal vectors: (Cartesian coordinate: in unit of 2 pi/a_0)
            +0.345219                  -0                  +0
                   -0           +0.191611                  -0
                   +0                  -0          +0.0847119




 >>>>>>>>>>>>>>>>>>>>>>>>>>>>>>>>>>>>>>>>>>>>>>>>>>>>>>>>>>>>>>>>>>>>>>
 |                                                                    |
 | Reading pseudopotentials files:                                    |
 | The pseudopotential file is in UPF format. The 'NC' indicates that |
 | the type of pseudopotential is 'norm conserving'. Functional of    |
 | exchange and correlation is decided by 4 given parameters in UPF   |
 | file.  We also read in the 'core correction' if there exists.      |
 | Also we can read the valence electrons number and the maximal      |
 | angular momentum used in this pseudopotential. We also read in the |
 | trail wave function, trail atomic density and local-pseudopotential|
 | on logrithmic grid. The non-local pseudopotential projector is also|
 | read in if there is any.                                           |
 |                                                                    |
 <<<<<<<<<<<<<<<<<<<<<<<<<<<<<<<<<<<<<<<<<<<<<<<<<<<<<<<<<<<<<<<<<<<<<<




                PAO radial cut off (Bohr) = 16

 Read in pseudopotential file is li.gga.psp.1
                     pseudopotential type = 
          exchange-correlation functional = XC_GGA_X_PBE+XC_GGA_C_PBE
                 nonlocal core correction = 0
                        valence electrons = 1
                                     lmax = 0
                           number of zeta = 0
                     number of projectors = 0
                PAO radial cut off (Bohr) = 16

 Read in pseudopotential file is mg.gga.psp
                     pseudopotential type = 
          exchange-correlation functional = XC_GGA_X_PBE+XC_GGA_C_PBE
                 nonlocal core correction = 0
                        valence electrons = 2
                                     lmax = 0
                           number of zeta = 0
                     number of projectors = 0
                PAO radial cut off (Bohr) = 16

 Read in pseudopotential file is al.gga.psp
                     pseudopotential type = 
          exchange-correlation functional = XC_GGA_X_PBE+XC_GGA_C_PBE
                 nonlocal core correction = 0
                        valence electrons = 3
                                     lmax = 0
                           number of zeta = 0
                     number of projectors = 0
Notice: symbol 'Li_locpsp' is not an element symbol!!!! set the covalent radius to be 0.
Notice: symbol 'mg_locpsp' is not an element symbol!!!! set the covalent radius to be 0.
Notice: symbol 'al_locpsp' is not an element symbol!!!! set the covalent radius to be 0.
     initial pseudo atomic orbital number = 0
                                   NLOCAL = 72




 >>>>>>>>>>>>>>>>>>>>>>>>>>>>>>>>>>>>>>>>>>>>>>>>>>>>>>>>>>>>>>>>>>>>>>
 |                                                                    |
 | Setup plane waves of charge/potential:                             |
 | Use the energy cutoff and the lattice vectors to generate the      |
 | dimensions of FFT grid. The number of FFT grid on each processor   |
 | is 'nrxx'. The number of plane wave basis in reciprocal space is   |
 | different for charege/potential and wave functions. We also set    |
 | the 'sticks' for the parallel of FFT. The number of plane waves    |
 | is 'npw' in each processor.                                        |
 <<<<<<<<<<<<<<<<<<<<<<<<<<<<<<<<<<<<<<<<<<<<<<<<<<<<<<<<<<<<<<<<<<<<<<





 SETUP THE PLANE WAVE BASIS
 energy cutoff for charge/potential (unit:Ry) = 235.196
          [fft grid for charge/potential] = 27, 50, 120
                      [fft grid division] = 1, 1, 1
      [big fft grid for charge/potential] = 27, 50, 120
                                     nbxx = 162000
                                     nrxx = 162000

 SETUP PLANE WAVES FOR CHARGE/POTENTIAL
                    number of plane waves = 162000
                         number of sticks = 1350

 PARALLEL PW FOR CHARGE/POTENTIAL
     PROC   COLUMNS(POT)             PW
        1           1350         162000
 --------------- sum -------------------
        1           1350         162000
                            number of |g| = 22204
                                  max |g| = 68.9215
                                  min |g| = 0

 SETUP THE ELECTRONS NUMBER
            electron number of element Li = 1
      total electron number of element Li = 2
            electron number of element Mg = 2
      total electron number of element Mg = 8
            electron number of element Al = 3
      total electron number of element Al = 6
            AUTOSET number of electrons:  = 16
 DONE : SETUP UNITCELL Time : 1.27498 (SEC)





 >>>>>>>>>>>>>>>>>>>>>>>>>>>>>>>>>>>>>>>>>>>>>>>>>>>>>>>>>>>>>>>>>>>>>>
 |                                                                    |
 | Doing symmetry analysis:                                           |
 | We calculate the norm of 3 vectors and the angles between them,    |
 | the type of Bravais lattice is given. We can judge if the unticell |
 | is a primitive cell. Finally we give the point group operation for |
 | this unitcell. We we use the point group operations to do symmetry |
 | analysis on given k-point mesh and the charge density.             |
 |                                                                    |
 <<<<<<<<<<<<<<<<<<<<<<<<<<<<<<<<<<<<<<<<<<<<<<<<<<<<<<<<<<<<<<<<<<<<<<




 LATTICE VECTORS: (CARTESIAN COORDINATE: IN UNIT OF A0)
             +2.89671                  +0                  +0
                   +0            +5.21892                  +0
                   +0                  +0            +11.8047
                       right hand lattice = 1
                                   NORM_A = 2.89671
                                   NORM_B = 5.21892
                                   NORM_C = 11.8047
                           ALPHA (DEGREE) = 90
                           BETA  (DEGREE) = 90
                           GAMMA (DEGREE) = 90
                             BRAVAIS TYPE = 8
                     BRAVAIS LATTICE NAME = 08. Orthorhombic P(simple)
                                    IBRAV = 8
                                  BRAVAIS = SIMPLE ORTHORHOMBIC CELL
                       LATTICE CONSTANT A = 2.89671
                                B/A RATIO = 1.80167
                                C/A RATIO = 4.07521
                                    ibrav = 8
                        ROTATION MATRICES = 8
              PURE POINT GROUP OPERATIONS = 8
                   SPACE GROUP OPERATIONS = 8
                                       C2 = 3
                                       C3 = 0
                                       C4 = 0
                                       C6 = 0
                                       S1 = 3
                                       S3 = 0
                                       S4 = 0
                                       S6 = 0
                              POINT GROUP = D_2h
Warning : If the optimal symmetric configuration is not the input configuration, 
you have to manually change configurations, ABACUS would only calculate the input structure.
 DONE : SYMMETRY Time : 1.37593 (SEC)





 >>>>>>>>>>>>>>>>>>>>>>>>>>>>>>>>>>>>>>>>>>>>>>>>>>>>>>>>>>>>>>>>>>>>>>
 |                                                                    |
 | Setup K-points                                                     |
 | We setup the k-points according to input parameters.               |
 | The reduced k-points are set according to symmetry operations.     |
 | We treat the spin as another set of k-points.                      |
 |                                                                    |
 <<<<<<<<<<<<<<<<<<<<<<<<<<<<<<<<<<<<<<<<<<<<<<<<<<<<<<<<<<<<<<<<<<<<<<





 SETUP K-POINTS
                                    nspin = 1
                   Input type of k points = Monkhorst-Pack(Gamma)
                                   nkstot = 1
                               nkstot_ibz = 1
      IBZ             DirectX             DirectY             DirectZ              Weight    ibz2bz
        1                   0                   0                   0                   1         0
                               nkstot now = 1

  KPOINTS            DIRECT_X            DIRECT_Y            DIRECT_Z              WEIGHT
        1                   0                   0                   0                   1

           k-point number in this process = 1
       minimum distributed K point number = 1

  KPOINTS         CARTESIAN_X         CARTESIAN_Y         CARTESIAN_Z              WEIGHT
        1                   0                   0                   0                   2

  KPOINTS            DIRECT_X            DIRECT_Y            DIRECT_Z              WEIGHT
        1                   0                   0                   0                   2
 DONE : INIT K-POINTS Time : 1.37674 (SEC)

 DONE : INIT BASIS Time : 1.87358 (SEC)

 DONE : INIT PHI Time : 1.87393 (SEC)


 SETUP NONLOCAL PSEUDOPOTENTIALS IN PLANE WAVE BASIS
 Li non-local projectors:
 Mg non-local projectors:
 Al non-local projectors:
      TOTAL NUMBER OF NONLOCAL PROJECTORS = 0

 nhm = 0, not allocate some matrix. DONE : LOCAL POTENTIAL Time : 10.3246 (SEC)


 Init Non-Local PseudoPotential table : 
 Init Non-Local-Pseudopotential done.
 DONE : NON-LOCAL POTENTIAL Time : 10.3268 (SEC)

Successful completion of Potential's registration : local
Successful completion of Potential's registration : hartree
Successful completion of Potential's registration : xc
                                 init_chg = atomic
 DONE : INIT POTENTIAL Time : 19.2475 (SEC)

 DONE : INIT OPTIMIZATION Time : 19.2502 (SEC)

 DONE : INIT KEDF Time : 19.2618 (SEC)


 charge density convergence is achieved
 final etot is -225.433 eV



 ><><><><><><><><><><><><><><><><><><><><><><

    TOTAL-FORCE (eV/Angstrom)

 ><><><><><><><><><><><><><><><><><><><><><><

     atom              x              y              z
      Li1              0              0              0
      Li2              0              0              0
      Mg1              0              0    +0.06747963
      Mg2              0              0    -0.06749278
      Mg3              0              0    +0.06749278
      Mg4              0              0    -0.06747963
      Al1              0              0              0
      Al2              0              0              0


 ><><><><><><><><><><><><><><><><><><><><><><

 TOTAL-STRESS (KBAR)

 ><><><><><><><><><><><><><><><><><><><><><><

      -31.377351      +0.000000      +0.000000
       +0.000000     -66.052562      +0.000000
       +0.000000      +0.000000    -124.551893
 TOTAL-PRESSURE: -73.993936 KBAR


 --------------------------------------------
 !FINAL_ETOT_IS -225.4331404069801010 eV
 --------------------------------------------






  |CLASS_NAME---------|NAME---------------|TIME(Sec)-----|CALLS----|AVG------|PER%-------
                                      total     +231.04495        21    +11.00   +100.00%
                 Driver         driver_line     +230.96579         1   +230.97    +99.97%
               PW_Basis      setuptransform       +1.03196         1     +1.03     +0.45%
                 mymath            heapsort       +0.10405       458     +0.00     +0.05%
               PW_Basis  setup_struc_factor       +0.49651         1     +0.50     +0.21%
              ppcell_vl           init_vloc       +8.45009         1     +8.45     +3.66%
                 Charge          atomic_rho       +8.14751         1     +8.15     +3.53%
               PW_Basis          recip2real      +59.40170      2516     +0.02    +25.71%
               PW_Basis    gathers_scatterp       +9.00377      2516     +0.00     +3.90%
              Potential            init_pot       +0.74158         1     +0.74     +0.32%
              Potential  update_from_charge     +120.23888       193     +0.62    +52.04%
              Potential           cal_v_eff     +120.18859       193     +0.62    +52.02%
           H_Hartree_pw           v_hartree      +11.86088       193     +0.06     +5.13%
               PW_Basis          real2recip      +56.80098      2511     +0.02    +24.58%
               PW_Basis    gatherp_scatters       +6.21379      2511     +0.00     +2.69%
                  PotXC           cal_v_eff     +107.70266       193     +0.56    +46.62%
          XC_Functional                v_xc     +100.92234        97     +1.04    +43.68%
          XC_Functional          v_xc_libxc     +106.67747       193     +0.55    +46.17%
             ESolver_OF                 Run     +202.77413         1   +202.77    +87.76%
               KEDF_LKT       LKT_potential      +67.31461       192     +0.35    +29.13%
                KEDF_vW        vw_potential      +10.82708       192     +0.06     +4.69%
                 Forces       cal_force_loc       +0.29962         1     +0.30     +0.13%
                 Forces        cal_force_ew       +0.28937         1     +0.29     +0.13%
           OF_Stress_PW          cal_stress       +8.17358         1     +8.17     +3.54%
            Stress_Func          stress_ewa       +0.30927         1     +0.31     +0.13%
            Stress_Func          stress_gga       +0.32676         1     +0.33     +0.14%
            Stress_Func          stress_loc       +7.52355         1     +7.52     +3.26%
 ----------------------------------------------------------------------------------------

 CLASS_NAME---------|NAME---------------|MEMORY(MB)--------
                                         +19.8237
             PW_Basis           struc_fac        +7.4158
               Charge                 rho        +1.2360
               Charge            rho_save        +1.2360
               Charge                rhog        +1.2360
               Charge           rhog_save        +1.2360
               Charge               kin_r        +1.2360
               Charge          kin_r_save        +1.2360
               Charge            rho_core        +1.2360
               Charge           rhog_core        +1.2360
            Potential   v_effective_fixed        +1.2360
            Potential              vr_eff        +1.2360
 ----------------------------------------------------------

 Start  Time  : Mon May 15 13:22:48 2023
 Finish Time  : Mon May 15 13:26:39 2023
 Total  Time  : 0 h 3 mins 51 secs 
