 *********************************************************
 *                                                       *
 *                  WELCOME TO ABACUS v3.0               *
 *                                                       *
 *            'Atomic-orbital Based Ab-initio            *
 *                  Computation at UStc'                 *
 *                                                       *
 *          Website: http://abacus.ustc.edu.cn/          *
 *                                                       *
 *********************************************************
 Wed Apr 26 00:06:32 2023
 MAKE THE DIR         : OUT.oftest/
Notice: symbol 'al_locpsp' is not an element symbol!!!! set the covalent radius to be 0.
 UNIFORM GRID DIM     : 25 * 25 * 45
 UNIFORM GRID DIM(BIG): 25 * 25 * 45
func,idXC_GGA_X_PBE 101
func,idXC_GGA_C_PBE 130
 DONE(0.12288    SEC) : SETUP UNITCELL
 DONE(0.177144   SEC) : SYMMETRY
 DONE(0.177426   SEC) : INIT K-POINTS
 ---------------------------------------------------------
 Self-consistent calculations for electrons
 ---------------------------------------------------------
 SPIN    KPOINTS         PROCESSORS  
 1       1               1           
 ---------------------------------------------------------
 Use plane wave basis
 ---------------------------------------------------------
 ELEMENT NATOM       XC          
 Al      2           
 ---------------------------------------------------------
 Initial plane wave basis and FFT box
 ---------------------------------------------------------
 DONE(0.182729   SEC) : INIT BASIS
 DONE(0.18276    SEC) : INIT PHI
 DONE(0.351744   SEC) : LOCAL POTENTIAL
 DONE(0.351785   SEC) : NON-LOCAL POTENTIAL
 START CHARGE      : atomic
 DONE(0.572183   SEC) : INIT POTENTIAL
 DONE(0.572298   SEC) : INIT OPTIMIZATION
Default type: double
nnode = 10
nlayer = 3
feg_net_F = 0.540933
 DONE(0.619129   SEC) : INIT KEDF
======================== Running OFDFT ========================
Iter        Etot(Ha)          Theta      PotNorm     deltaE(Ha)
0     -3.924534896175e+00   2.000e-01   2.899e-01   -3.925e+00  
1     -4.156447955280e+00   1.229e-01   2.113e-01   -2.319e-01  
2     -4.165951972465e+00   1.470e-02   3.087e-02   -9.504e-03  
3     -4.166331549922e+00   4.425e-03   2.977e-03   -3.796e-04  
4     -4.166333929853e+00   2.648e-04   1.402e-03   -2.380e-06  
5     -4.166334742777e+00   2.796e-04   1.231e-04   -8.129e-07  
6     -4.166334748784e+00   1.489e-05   8.721e-05   -6.006e-09  

  |CLASS_NAME---------|NAME---------------|TIME(Sec)-----|CALLS----|AVG------|PER%-------
                       total               162.95         21        7.8       1e+02     %
   Driver              driver_line         162.94         1         1.6e+02   1e+02     %
   PW_Basis            setuptransform      0.1037         1         0.1       0.064     %
   ppcell_vl           init_vloc           0.16879        1         0.17      0.1       %
   Charge              atomic_rho          0.17766        1         0.18      0.11      %
   PW_Basis            recip2real          3.5457         2748      0.0013    2.2       %
   PW_Basis            gathers_scatterp    0.26079        2748      9.5e-05   0.16      %
   Potential           update_from_charge  5.0133         138       0.036     3.1       %
   Potential           cal_v_eff           5.0113         138       0.036     3.1       %
   H_Hartree_pw        v_hartree           0.40328        138       0.0029    0.25      %
   PW_Basis            real2recip          3.2811         2748      0.0012    2         %
   PW_Basis            gatherp_scatters    0.15607        2748      5.7e-05   0.096     %
   PotXC               cal_v_eff           4.593          138       0.033     2.8       %
   XC_Functional       v_xc                80.631         69        1.2       49        %
   XC_Functional       v_xc_libxc          4.5858         138       0.033     2.8       %
   ESolver_OF          Run                 162.33         1         1.6e+02   1e+02     %
   KEDF_vW             vw_potential        0.39261        137       0.0029    0.24      %
 ----------------------------------------------------------------------------------------

 START  Time  : Wed Apr 26 00:06:32 2023
 FINISH Time  : Wed Apr 26 00:09:15 2023
 TOTAL  Time  : 1.6e+02
 SEE INFORMATION IN : OUT.oftest/
