 *********************************************************
 *                                                       *
 *                  WELCOME TO ABACUS v3.0               *
 *                                                       *
 *            'Atomic-orbital Based Ab-initio            *
 *                  Computation at UStc'                 *
 *                                                       *
 *          Website: http://abacus.ustc.edu.cn/          *
 *                                                       *
 *********************************************************
 Mon Mar  6 13:41:47 2023
 MAKE THE DIR         : OUT.blpstest/
Notice: symbol 'Li_locpsp' is not an element symbol!!!! set the covalent radius to be 0.
Notice: symbol 'mg_locpsp' is not an element symbol!!!! set the covalent radius to be 0.
 UNIFORM GRID DIM     : 25 * 25 * 25
 UNIFORM GRID DIM(BIG): 25 * 25 * 25
func,idXC_GGA_X_PBE 101
func,idXC_GGA_C_PBE 130
 DONE(0.0733292  SEC) : SETUP UNITCELL
 DONE(0.102976   SEC) : SYMMETRY
 DONE(0.26583    SEC) : INIT K-POINTS
 ---------------------------------------------------------
 Self-consistent calculations for electrons
 ---------------------------------------------------------
 SPIN    KPOINTS         PROCESSORS  
 1       286             1           
 ---------------------------------------------------------
 Use plane wave basis
 ---------------------------------------------------------
 ELEMENT NATOM       XC          
 Li      1           
 Mg      1           
 ---------------------------------------------------------
 Initial plane wave basis and FFT box
 ---------------------------------------------------------
 DONE(0.319165   SEC) : INIT PLANEWAVE
 MEMORY FOR PSI (MB)  : 28.4621
 DONE(0.34006    SEC) : LOCAL POTENTIAL
 DONE(0.34009    SEC) : NON-LOCAL POTENTIAL
 DONE(0.34014    SEC) : INIT BASIS
 START CHARGE      : atomic
 DONE(0.369022   SEC) : INIT SCF
 ITER   ETOT(eV)       EDIFF(eV)      DRHO       TIME(s)    
 CG1    -3.138903e+01  0.000000e+00   6.208e-02  6.928e+00  
 CG2    -3.162183e+01  -2.327969e-01  5.700e-03  2.494e+00  
 CG3    -3.162650e+01  -4.666165e-03  1.570e-06  3.118e+00  
 CG4    -3.162696e+01  -4.661569e-04  1.523e-06  5.616e+00  
 CG5    -3.162697e+01  -6.603194e-06  8.023e-08  2.308e+00  
 CG6    -3.162697e+01  -2.959863e-07  1.605e-08  3.219e+00  
 CG7    -3.162697e+01  -3.223794e-08  2.678e-09  2.781e+00  
 CG8    -3.162697e+01  -2.621801e-09  2.031e-11  2.670e+00  

  |CLASS_NAME---------|NAME---------------|TIME(Sec)-----|CALLS----|AVG------|PER%-------
                       total               29.515         17        1.7       1e+02     %
   Driver              driver_line         29.504         1         30        1e+02     %
   ESolver_KS_PW       Run                 29.168         1         29        99        %
   XC_Functional       v_xc                15.136         5         3         51        %
   HSolverPW           solve               29.033         8         3.6       98        %
   DiagoIterAssist     diagH_subspace      5.4773         2288      0.0024    19        %
   OperatorPW          hPsi                26.345         52674     0.0005    89        %
   Operator            EkineticPW          0.1274         52674     2.4e-06   0.43      %
   Operator            VeffPW              26.117         52674     0.0005    88        %
   PW_Basis_K          recip2real          13.782         67746     0.0002    47        %
   PW_Basis_K          gathers_scatterp    1.4278         67746     2.1e-05   4.8       %
   PW_Basis_K          real2recip          11.806         64114     0.00018   40        %
   PW_Basis_K          gatherp_scatters    0.42736        64114     6.7e-06   1.4       %
   DiagoCG             diag_once           22.458         2288      0.0098    76        %
   ElecStatePW         psiToRho            0.73756        8         0.092     2.5       %
 ----------------------------------------------------------------------------------------

 START  Time  : Mon Mar  6 13:41:47 2023
 FINISH Time  : Mon Mar  6 13:42:17 2023
 TOTAL  Time  : 30
 SEE INFORMATION IN : OUT.blpstest/
