 *********************************************************
 *                                                       *
 *                  WELCOME TO ABACUS v3.0               *
 *                                                       *
 *            'Atomic-orbital Based Ab-initio            *
 *                  Computation at UStc'                 *
 *                                                       *
 *          Website: http://abacus.ustc.edu.cn/          *
 *                                                       *
 *********************************************************
 Mon Jul 24 14:03:04 2023
 MAKE THE DIR         : OUT.blpstest/
Notice: symbol 'Ga_locpsp' is not an element symbol!!!! set the covalent radius to be 0.
Notice: symbol 'P_locpsp' is not an element symbol!!!! set the covalent radius to be 0.
 UNIFORM GRID DIM     : 36 * 36 * 36
 UNIFORM GRID DIM(BIG): 36 * 36 * 36
func,idXC_GGA_X_PBE 101
func,idXC_GGA_C_PBE 130
 DONE(0.248396   SEC) : SETUP UNITCELL
 DONE(0.310169   SEC) : SYMMETRY
 DONE(0.67439    SEC) : INIT K-POINTS
 ---------------------------------------------------------
 Self-consistent calculations for electrons
 ---------------------------------------------------------
 SPIN    KPOINTS         PROCESSORS  
 1       256             1           
 ---------------------------------------------------------
 Use plane wave basis
 ---------------------------------------------------------
 ELEMENT NATOM       XC          
 Ga      1           
 P       1           
 ---------------------------------------------------------
 Initial plane wave basis and FFT box
 ---------------------------------------------------------
 DONE(0.799887   SEC) : INIT PLANEWAVE
 MEMORY FOR PSI (MB)  : 55.8281
 DONE(0.843809   SEC) : LOCAL POTENTIAL
 DONE(0.843865   SEC) : NON-LOCAL POTENTIAL
 DONE(0.843956   SEC) : INIT BASIS
 START CHARGE      : atomic
 DONE(0.981276   SEC) : INIT SCF
 ITER   ETOT(eV)       EDIFF(eV)      DRHO       TIME(s)    
 CG1    -2.378540e+02  0.000000e+00   1.890e+00  6.440e+01  
 CG2    -2.416932e+02  -3.839194e+00  6.231e-02  1.768e+01  
 CG3    -2.418542e+02  -1.610165e-01  2.588e-03  1.521e+01  
 CG4    -2.418594e+02  -5.181856e-03  6.063e-05  1.738e+01  
 CG5    -2.418598e+02  -3.575391e-04  3.948e-06  1.952e+01  
 CG6    -2.418598e+02  -9.916046e-06  1.458e-07  1.729e+01  
 CG7    -2.418598e+02  -3.401201e-07  9.341e-10  1.796e+01  

  |CLASS_NAME---------|NAME---------------|TIME(Sec)-----|CALLS----|AVG------|PER%-------
                       total               170.44         17        10        1e+02     %
   Driver              driver_line         170.42         1         1.7e+02   1e+02     %
   PW_Basis            setuptransform      0.22518        1         0.23      0.13      %
   ESolver_KS_PW       Run                 169.58         1         1.7e+02   99        %
   Potential           update_from_charge  0.43597        8         0.054     0.26      %
   Potential           cal_v_eff           0.43246        8         0.054     0.25      %
   PotXC               cal_v_eff           0.39882        8         0.05      0.23      %
   XC_Functional       v_xc                117.12         4         29        69        %
   XC_Functional       v_xc_libxc          0.39468        8         0.049     0.23      %
   HSolverPW           solve               169.01         7         24        99        %
   DiagoIterAssist     diagH_subspace      28.921         1792      0.016     17        %
   OperatorPW          hPsi                152.78         63525     0.0024    90        %
   Operator            EkineticPW          0.63989        63525     1e-05     0.38      %
   Operator            VeffPW              151.73         63525     0.0024    89        %
   PW_Basis_K          recip2real          78.674         85029     0.00093   46        %
   PW_Basis_K          gathers_scatterp    7.5947         85029     8.9e-05   4.5       %
   PW_Basis_K          real2recip          60.22          77861     0.00077   35        %
   PW_Basis_K          gatherp_scatters    2.5388         77861     3.3e-05   1.5       %
   DiagoIterAssist     LAPACK_subspace     0.20593        1792      0.00011   0.12      %
   DiagoCG             diag_once           133.17         1792      0.074     78        %
   ElecStatePW         psiToRho            5.8825         7         0.84      3.5       %
 ----------------------------------------------------------------------------------------

 START  Time  : Mon Jul 24 14:03:04 2023
 FINISH Time  : Mon Jul 24 14:05:55 2023
 TOTAL  Time  : 1.7e+02
 SEE INFORMATION IN : OUT.blpstest/
