 *********************************************************
 *                                                       *
 *                  WELCOME TO ABACUS v3.0               *
 *                                                       *
 *            'Atomic-orbital Based Ab-initio            *
 *                  Computation at UStc'                 *
 *                                                       *
 *          Website: http://abacus.ustc.edu.cn/          *
 *                                                       *
 *********************************************************
 Mon Apr 17 14:43:51 2023
 MAKE THE DIR         : OUT.blpstest/
Notice: symbol 'al_locpsp' is not an element symbol!!!! set the covalent radius to be 0.
 UNIFORM GRID DIM     : 27 * 27 * 45
 UNIFORM GRID DIM(BIG): 27 * 27 * 45
func,idXC_GGA_X_PBE 101
func,idXC_GGA_C_PBE 130
 DONE(0.239624   SEC) : SETUP UNITCELL
 DONE(0.348016   SEC) : SYMMETRY
 DONE(0.405967   SEC) : INIT K-POINTS
 ---------------------------------------------------------
 Self-consistent calculations for electrons
 ---------------------------------------------------------
 SPIN    KPOINTS         PROCESSORS  
 1       133             1           
 ---------------------------------------------------------
 Use plane wave basis
 ---------------------------------------------------------
 ELEMENT NATOM       XC          
 Al      2           
 ---------------------------------------------------------
 Initial plane wave basis and FFT box
 ---------------------------------------------------------
 DONE(0.427847   SEC) : INIT BASIS
 DONE(0.427881   SEC) : INIT PHI
 DONE(0.716798   SEC) : LOCAL POTENTIAL
 DONE(0.716841   SEC) : NON-LOCAL POTENTIAL
 START CHARGE      : atomic
 DONE(1.10929    SEC) : INIT POTENTIAL
 DONE(1.10945    SEC) : INIT OPTIMIZATION
 DONE(1.11141    SEC) : INIT KEDF
======================== Running OFDFT ========================
Iter        Etot(Ha)          Theta      PotNorm     deltaE(Ha)
0     -4.041828660382e+00   2.000e-01   2.021e-01   -4.042e+00  
1     -4.061891885641e+00   4.492e-02   2.503e-01   -2.006e-02  
2     -4.063994462036e+00   9.487e-03   2.576e-01   -2.103e-03  
3     -4.200688251925e+00   7.551e-02   6.140e-02   -1.367e-01  
4     -4.201376972483e+00   3.179e-03   8.982e-03   -6.887e-04  
5     -4.201422097545e+00   1.811e-03   9.520e-04   -4.513e-05  
6     -4.201422445101e+00   1.577e-04   1.721e-04   -3.476e-07  
7     -4.201422463008e+00   3.122e-05   7.062e-05   -1.791e-08  

  |CLASS_NAME---------|NAME---------------|TIME(Sec)-----|CALLS----|AVG------|PER%-------
                       total               23.335         21        1.1       1e+02     %
   Driver              driver_line         23.298         1         23        1e+02     %
   PW_Basis            setuptransform      0.17257        1         0.17      0.74      %
   ppcell_vl           init_vloc           0.28873        1         0.29      1.2       %
   Charge              atomic_rho          0.32942        1         0.33      1.4       %
   PW_Basis            recip2real          3.5674         1736      0.0021    15        %
   PW_Basis            gathers_scatterp    0.28303        1736      0.00016   1.2       %
   Potential           update_from_charge  13.613         193       0.071     58        %
   Potential           cal_v_eff           13.61          193       0.071     58        %
   H_Hartree_pw        v_hartree           1.2594         193       0.0065    5.4       %
   PW_Basis            real2recip          5.0336         2120      0.0024    22        %
   PW_Basis            gatherp_scatters    0.33211        2120      0.00016   1.4       %
   PotXC               cal_v_eff           12.294         193       0.064     53        %
   XC_Functional       v_xc                11.055         97        0.11      47        %
   XC_Functional       v_xc_libxc          12.223         193       0.063     52        %
   ESolver_OF          Run                 22.223         1         22        95        %
   KEDF_TF             tf_potential        1.4833         192       0.0077    6.4       %
   KEDF_WT             wt_potential        5.6959         192       0.03      24        %
   KEDF_vW             vw_potential        1.0385         192       0.0054    4.5       %
 ----------------------------------------------------------------------------------------

 START  Time  : Mon Apr 17 14:43:51 2023
 FINISH Time  : Mon Apr 17 14:44:15 2023
 TOTAL  Time  : 24
 SEE INFORMATION IN : OUT.blpstest/
