 *********************************************************
 *                                                       *
 *                  WELCOME TO ABACUS v3.0               *
 *                                                       *
 *            'Atomic-orbital Based Ab-initio            *
 *                  Computation at UStc'                 *
 *                                                       *
 *          Website: http://abacus.ustc.edu.cn/          *
 *                                                       *
 *********************************************************
 Tue May  2 12:47:56 2023
 MAKE THE DIR         : OUT.blpstest/
Notice: symbol 'Li_locpsp' is not an element symbol!!!! set the covalent radius to be 0.
 UNIFORM GRID DIM     : 25 * 25 * 25
 UNIFORM GRID DIM(BIG): 25 * 25 * 25
func,idXC_GGA_X_PBE 101
func,idXC_GGA_C_PBE 130
 DONE(0.0917756  SEC) : SETUP UNITCELL
 DONE(0.146439   SEC) : SYMMETRY
 DONE(0.146645   SEC) : INIT K-POINTS
 ---------------------------------------------------------
 Self-consistent calculations for electrons
 ---------------------------------------------------------
 SPIN    KPOINTS         PROCESSORS  
 1       1               1           
 ---------------------------------------------------------
 Use plane wave basis
 ---------------------------------------------------------
 ELEMENT NATOM       XC          
 Li      1           
 ---------------------------------------------------------
 Initial plane wave basis and FFT box
 ---------------------------------------------------------
 DONE(0.147624   SEC) : INIT BASIS
 DONE(0.147654   SEC) : INIT PHI
 DONE(0.169091   SEC) : LOCAL POTENTIAL
 DONE(0.169121   SEC) : NON-LOCAL POTENTIAL
 START CHARGE      : atomic
 DONE(0.214101   SEC) : INIT POTENTIAL
 DONE(0.214147   SEC) : INIT OPTIMIZATION
Default type: double
 DONE(0.215136   SEC) : INIT KEDF
======================== Running OFDFT ========================
Iter        Etot(Ha)          Theta      PotNorm     deltaE(Ha)
0     -2.593657124149e-01   2.000e-01   8.585e-02   -2.594e-01  
1     -2.717994293833e-01   8.059e-02   3.222e-02   -1.243e-02  
2     -2.721557119139e-01   9.367e-03   3.463e-03   -3.563e-04  
3     -2.721598930277e-01   1.719e-03   2.868e-04   -4.181e-06  
4     -2.721599234023e-01   1.124e-04   2.444e-05   -3.037e-08  
5     -2.721599238686e-01   2.202e-05   1.716e-06   -4.663e-10  

  |CLASS_NAME---------|NAME---------------|TIME(Sec)-----|CALLS----|AVG------|PER%-------
                       total               7.0816         21        0.34      1e+02     %
   Driver              driver_line         7.07           1         7.1       1e+02     %
   PW_Basis            recip2real          1.2477         1867      0.00067   18        %
   PW_Basis            gathers_scatterp    0.13433        1867      7.2e-05   1.9       %
   Potential           update_from_charge  4.0426         144       0.028     57        %
   Potential           cal_v_eff           4.041          144       0.028     57        %
   H_Hartree_pw        v_hartree           0.30803        144       0.0021    4.3       %
   PW_Basis            real2recip          1.3343         1867      0.00071   19        %
   PW_Basis            gatherp_scatters    0.13201        1867      7.1e-05   1.9       %
   PotXC               cal_v_eff           3.7076         144       0.026     52        %
   XC_Functional       v_xc                3.4338         72        0.048     48        %
   XC_Functional       v_xc_libxc          3.6525         144       0.025     52        %
   ESolver_OF          Run                 6.8653         1         6.9       97        %
   KEDF_LKT            LKT_potential       2.3627         143       0.017     33        %
   KEDF_vW             vw_potential        0.27416        143       0.0019    3.9       %
 ----------------------------------------------------------------------------------------

 START  Time  : Tue May  2 12:47:56 2023
 FINISH Time  : Tue May  2 12:48:04 2023
 TOTAL  Time  : 8
 SEE INFORMATION IN : OUT.blpstest/
