 *********************************************************
 *                                                       *
 *                  WELCOME TO ABACUS v3.0               *
 *                                                       *
 *            'Atomic-orbital Based Ab-initio            *
 *                  Computation at UStc'                 *
 *                                                       *
 *          Website: http://abacus.ustc.edu.cn/          *
 *                                                       *
 *********************************************************
 Wed Mar 22 11:48:03 2023
 MAKE THE DIR         : OUT.blpstest/
Notice: symbol 'al_locpsp' is not an element symbol!!!! set the covalent radius to be 0.
Notice: symbol 'P_locpsp' is not an element symbol!!!! set the covalent radius to be 0.
 UNIFORM GRID DIM     : 40 * 40 * 40
 UNIFORM GRID DIM(BIG): 40 * 40 * 40
func,idXC_GGA_X_PBE 101
func,idXC_GGA_C_PBE 130
 DONE(0.179819   SEC) : SETUP UNITCELL
 DONE(0.211255   SEC) : SYMMETRY
 DONE(0.374662   SEC) : INIT K-POINTS
 ---------------------------------------------------------
 Self-consistent calculations for electrons
 ---------------------------------------------------------
 SPIN    KPOINTS         PROCESSORS  
 1       256             1           
 ---------------------------------------------------------
 Use plane wave basis
 ---------------------------------------------------------
 ELEMENT NATOM       XC          
 Al      1           
 P       1           
 ---------------------------------------------------------
 Initial plane wave basis and FFT box
 ---------------------------------------------------------
 DONE(0.468282   SEC) : INIT PLANEWAVE
 MEMORY FOR PSI (MB)  : 79.1719
 DONE(0.506783   SEC) : LOCAL POTENTIAL
 DONE(0.506816   SEC) : NON-LOCAL POTENTIAL
 DONE(0.506869   SEC) : INIT BASIS
 START CHARGE      : atomic
 DONE(0.592297   SEC) : INIT SCF
 ITER   ETOT(eV)       EDIFF(eV)      DRHO       TIME(s)    
 CG1    -2.312246e+02  0.000000e+00   3.252e+00  4.078e+01  
 CG2    -2.404411e+02  -9.216464e+00  2.659e-01  1.910e+01  
 CG3    -2.412760e+02  -8.349201e-01  9.874e-03  1.664e+01  
 CG4    -2.412928e+02  -1.676737e-02  3.612e-04  1.901e+01  
 CG5    -2.412945e+02  -1.771103e-03  1.249e-05  2.075e+01  
 CG6    -2.412946e+02  -4.020658e-05  2.823e-07  2.083e+01  
 CG7    -2.412946e+02  -1.167042e-06  2.136e-09  2.143e+01  
 CG8    -2.412946e+02  -1.910144e-08  9.069e-10  2.431e+01  

  |CLASS_NAME---------|NAME---------------|TIME(Sec)-----|CALLS----|AVG------|PER%-------
                       total               183.47         17        11        1e+02     %
   Driver              driver_line         183.46         1         1.8e+02   1e+02     %
   PW_Basis            setuptransform      0.15761        1         0.16      0.086     %
   ESolver_KS_PW       Run                 182.95         1         1.8e+02   1e+02     %
   Potential           update_from_charge  0.4543         9         0.05      0.25      %
   Potential           cal_v_eff           0.45298        9         0.05      0.25      %
   PW_Basis            real2recip          0.10987        88        0.0012    0.06      %
   PotXC               cal_v_eff           0.42213        9         0.047     0.23      %
   XC_Functional       v_xc                99.602         5         20        54        %
   XC_Functional       v_xc_libxc          0.41961        9         0.047     0.23      %
   HSolverPW           solve               182.37         8         23        99        %
   DiagoIterAssist     diagH_subspace      34.809         2048      0.017     19        %
   OperatorPW          hPsi                166.47         74829     0.0022    91        %
   Operator            EkineticPW          0.4267         74829     5.7e-06   0.23      %
   Operator            VeffPW              165.78         74829     0.0022    90        %
   PW_Basis_K          recip2real          91.999         99405     0.00093   50        %
   PW_Basis_K          gathers_scatterp    8.1815         99405     8.2e-05   4.5       %
   PW_Basis_K          real2recip          72.617         91213     0.0008    40        %
   PW_Basis_K          gatherp_scatters    1.4097         91213     1.5e-05   0.77      %
   DiagoIterAssist     LAPACK_subspace     0.11358        2048      5.5e-05   0.062     %
   DiagoCG             diag_once           138.17         2048      0.067     75        %
   ElecStatePW         psiToRho            8.3942         8         1         4.6       %
 ----------------------------------------------------------------------------------------

 START  Time  : Wed Mar 22 11:48:03 2023
 FINISH Time  : Wed Mar 22 11:51:07 2023
 TOTAL  Time  : 1.8e+02
 SEE INFORMATION IN : OUT.blpstest/
