                                                                                     
                             WELCOME TO ABACUS                                       
                                                                                     
               'Atomic-orbital Based Ab-initio Computation at UStc'                  
                                                                                     
                     Website: http://abacus.ustc.edu.cn/                             
                                                                                     
    Version: Parallel, in development
    Processor Number is 1
    Start Time is Fri Jul 30 19:55:43 2021
                                                                                     
 ------------------------------------------------------------------------------------

 READING GENERAL INFORMATION
                           global_out_dir = OUT.blpstest/
                           global_in_card = INPUT
                               pseudo_dir = ./
                              pseudo_type = blps
                                    DRANK = 1
                                    DSIZE = 1
                                   DCOLOR = 1
                                    GRANK = 1
                                    GSIZE = 1




 >>>>>>>>>>>>>>>>>>>>>>>>>>>>>>>>>>>>>>>>>>>>>>>>>>>>>>>>>>>>>>>>>>>>>>
 |                                                                    |
 | Reading atom information in unitcell:                              |
 | From the input file and the structure file we know the number of   |
 | different elments in this unitcell, then we list the detail        |
 | information for each element, especially the zeta and polar atomic |
 | orbital number for each element. The total atom number is counted. |
 | We calculate the nearest atom distance for each atom and show the  |
 | Cartesian and Direct coordinates for each atom. We list the file   |
 | address for atomic orbitals. The volume and the lattice vectors    |
 | in real and reciprocal space is also shown.                        |
 |                                                                    |
 <<<<<<<<<<<<<<<<<<<<<<<<<<<<<<<<<<<<<<<<<<<<<<<<<<<<<<<<<<<<<<<<<<<<<<




 READING UNITCELL INFORMATION
                                    ntype = 1
                 atom label for species 1 = Al
                  lattice constant (Bohr) = 4.89223
              lattice constant (Angstrom) = 2.58886

 READING ATOM TYPE 1
                               atom label = Al
                      start magnetization = FALSE
                      L=0, number of zeta = 1
                      L=1, number of zeta = 1
                      L=2, number of zeta = 1
             number of atom for this type = 2

                        TOTAL ATOM NUMBER = 2

 DIRECT COORDINATES
         atom                   x                   y                   z                 mag
     taud_Al1                   0                   0                   0                   0
     taud_Al2            0.666667            0.333333                 0.5                   0


                          Volume (Bohr^3) = 166.395
                             Volume (A^3) = 24.6571

 Lattice vectors: (Cartesian coordinate: in unit of a_0)
                   +1                  +0                  +0
                 -0.5           +0.866025                  +0
                   +0                  +0            +1.64092
 Reciprocal vectors: (Cartesian coordinate: in unit of 2 pi/a_0)
                   +1            +0.57735                  -0
                   -0             +1.1547                  -0
                   +0                  -0           +0.609413




 >>>>>>>>>>>>>>>>>>>>>>>>>>>>>>>>>>>>>>>>>>>>>>>>>>>>>>>>>>>>>>>>>>>>>>
 |                                                                    |
 | Reading pseudopotentials files:                                    |
 | The pseudopotential file is in UPF format. The 'NC' indicates that |
 | the type of pseudopotential is 'norm conserving'. Functional of    |
 | exchange and correlation is decided by 4 given parameters in UPF   |
 | file.  We also read in the 'core correction' if there exists.      |
 | Also we can read the valence electrons number and the maximal      |
 | angular momentum used in this pseudopotential. We also read in the |
 | trail wave function, trail atomic density and local-pseudopotential|
 | on logrithmic grid. The non-local pseudopotential projector is also|
 | read in if there is any.                                           |
 |                                                                    |
 <<<<<<<<<<<<<<<<<<<<<<<<<<<<<<<<<<<<<<<<<<<<<<<<<<<<<<<<<<<<<<<<<<<<<<




                PAO radial cut off (Bohr) = 16

 Read in pseudopotential file is al.lda.lps
                     pseudopotential type = 
                            functional Ex = LDA
                            functional Ec = LDA
                          functional GCEx = NOGX
                          functional GCEc = NOGC
                 nonlocal core correction = 0
                        valence electrons = 3
                                     lmax = 0
                           number of zeta = 0
                     number of projectors = 0
     initial pseudo atomic orbital number = 0
                                   NLOCAL = 18

 SETUP THE ELECTRONS NUMBER
            electron number of element Al = 3
      total electron number of element Al = 6
                           occupied bands = 3
                                   NBANDS = 15
 DONE : SETUP UNITCELL Time : 0.016783 (SEC)





 >>>>>>>>>>>>>>>>>>>>>>>>>>>>>>>>>>>>>>>>>>>>>>>>>>>>>>>>>>>>>>>>>>>>>>
 |                                                                    |
 | Doing symmetry analysis:                                           |
 | We calculate the norm of 3 vectors and the angles between them,    |
 | the type of Bravais lattice is given. We can judge if the unticell |
 | is a primitive cell. Finally we give the point group operation for |
 | this unitcell. We we use the point group operations to do symmetry |
 | analysis on given k-point mesh and the charge density.             |
 |                                                                    |
 <<<<<<<<<<<<<<<<<<<<<<<<<<<<<<<<<<<<<<<<<<<<<<<<<<<<<<<<<<<<<<<<<<<<<<




 LATTICE VECTORS: (CARTESIAN COORDINATE: IN UNIT OF A0)
                   +1                  +0                  +0
                 -0.5           +0.866025                  +0
                   +0                  +0            +1.64092
                       right hand lattice = 1
                                   NORM_A = 1
                                   NORM_B = 1
                                   NORM_C = 1.64092
                           ALPHA (DEGREE) = 120
                           BETA  (DEGREE) = 90
                           GAMMA (DEGREE) = 90
                             BRAVAIS TYPE = 4
                     BRAVAIS LATTICE NAME = 04. Hexagonal cell
 STANDARD LATTICE VECTORS: (CARTESIAN COORDINATE: IN UNIT OF A0)
                   +1                  +0                  +0
                 -0.5           +0.866025                  +0
                   +0                  +0            +1.64092
                                    IBRAV = 4
                                  BRAVAIS = HEXAGONAL CELL
                       LATTICE CONSTANT A = 5.58871
                                C/A RATIO = 0.663993
                                    ibrav = 4
                        ROTATION MATRICES = 24
              PURE POINT GROUP OPERATIONS = 12
                   SPACE GROUP OPERATIONS = 12
                                       C2 = 3
                                       C3 = 2
                                       C4 = 0
                                       C6 = 0
                                       S1 = 4
                                       S3 = 2
                                       S4 = 0
                                       S6 = 0
                              POINT GROUP = D_3h
 DONE : SYMMETRY Time : 0.07302 (SEC)





 >>>>>>>>>>>>>>>>>>>>>>>>>>>>>>>>>>>>>>>>>>>>>>>>>>>>>>>>>>>>>>>>>>>>>>
 |                                                                    |
 | Setup K-points                                                     |
 | We setup the k-points according to input parameters.               |
 | The reduced k-points are set according to symmetry operations.     |
 | We treat the spin as another set of k-points.                      |
 |                                                                    |
 <<<<<<<<<<<<<<<<<<<<<<<<<<<<<<<<<<<<<<<<<<<<<<<<<<<<<<<<<<<<<<<<<<<<<<





 SETUP K-POINTS
                                    nspin = 1
                   Input type of k points = Monkhorst-Pack(Gamma)
                                   nkstot = 1728
                               nkstot_ibz = 133
      IBZ             DirectX             DirectY             DirectZ              Weight    ibz2bz
        1                   0                   0                   0         0.000578704         0
        2            0.916667           0.0833333                   0          0.00347222         1
        3            0.833333            0.166667                   0          0.00347222         2
        4                0.75                0.25                   0          0.00347222         3
        5            0.666667            0.333333                   0          0.00347222         4
        6            0.583333            0.416667                   0          0.00347222         5
        7                 0.5                 0.5                   0          0.00173611         6
        8            0.916667            0.916667                   0          0.00347222        13
        9            0.916667            0.833333                   0          0.00694444        14
       10            0.916667                0.75                   0          0.00694444        15
       11            0.916667            0.666667                   0          0.00694444        16
       12            0.916667            0.583333                   0          0.00694444        17
       13            0.833333            0.833333                   0          0.00347222        26
       14            0.833333                0.75                   0          0.00694444        27
       15            0.833333            0.666667                   0          0.00694444        28
       16            0.833333            0.583333                   0          0.00347222        29
       17                0.75                0.75                   0          0.00347222        39
       18                0.75            0.666667                   0          0.00694444        40
       19            0.666667            0.666667                   0          0.00115741        52
       20                   0                   0            0.916667          0.00115741       144
       21            0.916667           0.0833333            0.916667          0.00694444       145
       22            0.833333            0.166667            0.916667          0.00694444       146
       23                0.75                0.25            0.916667          0.00694444       147
       24            0.666667            0.333333            0.916667          0.00694444       148
       25            0.583333            0.416667            0.916667          0.00694444       149
       26                 0.5                 0.5            0.916667          0.00347222       150
       27            0.916667            0.916667            0.916667          0.00694444       157
       28            0.916667            0.833333            0.916667           0.0138889       158
       29            0.916667                0.75            0.916667           0.0138889       159
       30            0.916667            0.666667            0.916667           0.0138889       160
       31            0.916667            0.583333            0.916667           0.0138889       161
       32            0.833333            0.833333            0.916667          0.00694444       170
       33            0.833333                0.75            0.916667           0.0138889       171
       34            0.833333            0.666667            0.916667           0.0138889       172
       35            0.833333            0.583333            0.916667          0.00694444       173
       36                0.75                0.75            0.916667          0.00694444       183
       37                0.75            0.666667            0.916667           0.0138889       184
       38            0.666667            0.666667            0.916667          0.00231481       196
       39                   0                   0            0.833333          0.00115741       288
       40            0.916667           0.0833333            0.833333          0.00694444       289
       41            0.833333            0.166667            0.833333          0.00694444       290
       42                0.75                0.25            0.833333          0.00694444       291
       43            0.666667            0.333333            0.833333          0.00694444       292
       44            0.583333            0.416667            0.833333          0.00694444       293
       45                 0.5                 0.5            0.833333          0.00347222       294
       46            0.916667            0.916667            0.833333          0.00694444       301
       47            0.916667            0.833333            0.833333           0.0138889       302
       48            0.916667                0.75            0.833333           0.0138889       303
       49            0.916667            0.666667            0.833333           0.0138889       304
       50            0.916667            0.583333            0.833333           0.0138889       305
       51            0.833333            0.833333            0.833333          0.00694444       314
       52            0.833333                0.75            0.833333           0.0138889       315
       53            0.833333            0.666667            0.833333           0.0138889       316
       54            0.833333            0.583333            0.833333          0.00694444       317
       55                0.75                0.75            0.833333          0.00694444       327
       56                0.75            0.666667            0.833333           0.0138889       328
       57            0.666667            0.666667            0.833333          0.00231481       340
       58                   0                   0                0.75          0.00115741       432
       59            0.916667           0.0833333                0.75          0.00694444       433
       60            0.833333            0.166667                0.75          0.00694444       434
       61                0.75                0.25                0.75          0.00694444       435
       62            0.666667            0.333333                0.75          0.00694444       436
       63            0.583333            0.416667                0.75          0.00694444       437
       64                 0.5                 0.5                0.75          0.00347222       438
       65            0.916667            0.916667                0.75          0.00694444       445
       66            0.916667            0.833333                0.75           0.0138889       446
       67            0.916667                0.75                0.75           0.0138889       447
       68            0.916667            0.666667                0.75           0.0138889       448
       69            0.916667            0.583333                0.75           0.0138889       449
       70            0.833333            0.833333                0.75          0.00694444       458
       71            0.833333                0.75                0.75           0.0138889       459
       72            0.833333            0.666667                0.75           0.0138889       460
       73            0.833333            0.583333                0.75          0.00694444       461
       74                0.75                0.75                0.75          0.00694444       471
       75                0.75            0.666667                0.75           0.0138889       472
       76            0.666667            0.666667                0.75          0.00231481       484
       77                   0                   0            0.666667          0.00115741       576
       78            0.916667           0.0833333            0.666667          0.00694444       577
       79            0.833333            0.166667            0.666667          0.00694444       578
       80                0.75                0.25            0.666667          0.00694444       579
       81            0.666667            0.333333            0.666667          0.00694444       580
       82            0.583333            0.416667            0.666667          0.00694444       581
       83                 0.5                 0.5            0.666667          0.00347222       582
       84            0.916667            0.916667            0.666667          0.00694444       589
       85            0.916667            0.833333            0.666667           0.0138889       590
       86            0.916667                0.75            0.666667           0.0138889       591
       87            0.916667            0.666667            0.666667           0.0138889       592
       88            0.916667            0.583333            0.666667           0.0138889       593
       89            0.833333            0.833333            0.666667          0.00694444       602
       90            0.833333                0.75            0.666667           0.0138889       603
       91            0.833333            0.666667            0.666667           0.0138889       604
       92            0.833333            0.583333            0.666667          0.00694444       605
       93                0.75                0.75            0.666667          0.00694444       615
       94                0.75            0.666667            0.666667           0.0138889       616
       95            0.666667            0.666667            0.666667          0.00231481       628
       96                   0                   0            0.583333          0.00115741       720
       97            0.916667           0.0833333            0.583333          0.00694444       721
       98            0.833333            0.166667            0.583333          0.00694444       722
       99                0.75                0.25            0.583333          0.00694444       723
      100            0.666667            0.333333            0.583333          0.00694444       724
      101            0.583333            0.416667            0.583333          0.00694444       725
      102                 0.5                 0.5            0.583333          0.00347222       726
      103            0.916667            0.916667            0.583333          0.00694444       733
      104            0.916667            0.833333            0.583333           0.0138889       734
      105            0.916667                0.75            0.583333           0.0138889       735
      106            0.916667            0.666667            0.583333           0.0138889       736
      107            0.916667            0.583333            0.583333           0.0138889       737
      108            0.833333            0.833333            0.583333          0.00694444       746
      109            0.833333                0.75            0.583333           0.0138889       747
      110            0.833333            0.666667            0.583333           0.0138889       748
      111            0.833333            0.583333            0.583333          0.00694444       749
      112                0.75                0.75            0.583333          0.00694444       759
      113                0.75            0.666667            0.583333           0.0138889       760
      114            0.666667            0.666667            0.583333          0.00231481       772
      115                   0                   0                 0.5         0.000578704       864
      116            0.916667           0.0833333                 0.5          0.00347222       865
      117            0.833333            0.166667                 0.5          0.00347222       866
      118                0.75                0.25                 0.5          0.00347222       867
      119            0.666667            0.333333                 0.5          0.00347222       868
      120            0.583333            0.416667                 0.5          0.00347222       869
      121                 0.5                 0.5                 0.5          0.00173611       870
      122            0.916667            0.916667                 0.5          0.00347222       877
      123            0.916667            0.833333                 0.5          0.00694444       878
      124            0.916667                0.75                 0.5          0.00694444       879
      125            0.916667            0.666667                 0.5          0.00694444       880
      126            0.916667            0.583333                 0.5          0.00694444       881
      127            0.833333            0.833333                 0.5          0.00347222       890
      128            0.833333                0.75                 0.5          0.00694444       891
      129            0.833333            0.666667                 0.5          0.00694444       892
      130            0.833333            0.583333                 0.5          0.00347222       893
      131                0.75                0.75                 0.5          0.00347222       903
      132                0.75            0.666667                 0.5          0.00694444       904
      133            0.666667            0.666667                 0.5          0.00115741       916
                               nkstot now = 133

  KPOINTS            DIRECT_X            DIRECT_Y            DIRECT_Z              WEIGHT
        1                   0                   0                   0         0.000578704
        2            0.916667           0.0833333                   0          0.00347222
        3            0.833333            0.166667                   0          0.00347222
        4                0.75                0.25                   0          0.00347222
        5            0.666667            0.333333                   0          0.00347222
        6            0.583333            0.416667                   0          0.00347222
        7                 0.5                 0.5                   0          0.00173611
        8            0.916667            0.916667                   0          0.00347222
        9            0.916667            0.833333                   0          0.00694444
       10            0.916667                0.75                   0          0.00694444
       11            0.916667            0.666667                   0          0.00694444
       12            0.916667            0.583333                   0          0.00694444
       13            0.833333            0.833333                   0          0.00347222
       14            0.833333                0.75                   0          0.00694444
       15            0.833333            0.666667                   0          0.00694444
       16            0.833333            0.583333                   0          0.00347222
       17                0.75                0.75                   0          0.00347222
       18                0.75            0.666667                   0          0.00694444
       19            0.666667            0.666667                   0          0.00115741
       20                   0                   0            0.916667          0.00115741
       21            0.916667           0.0833333            0.916667          0.00694444
       22            0.833333            0.166667            0.916667          0.00694444
       23                0.75                0.25            0.916667          0.00694444
       24            0.666667            0.333333            0.916667          0.00694444
       25            0.583333            0.416667            0.916667          0.00694444
       26                 0.5                 0.5            0.916667          0.00347222
       27            0.916667            0.916667            0.916667          0.00694444
       28            0.916667            0.833333            0.916667           0.0138889
       29            0.916667                0.75            0.916667           0.0138889
       30            0.916667            0.666667            0.916667           0.0138889
       31            0.916667            0.583333            0.916667           0.0138889
       32            0.833333            0.833333            0.916667          0.00694444
       33            0.833333                0.75            0.916667           0.0138889
       34            0.833333            0.666667            0.916667           0.0138889
       35            0.833333            0.583333            0.916667          0.00694444
       36                0.75                0.75            0.916667          0.00694444
       37                0.75            0.666667            0.916667           0.0138889
       38            0.666667            0.666667            0.916667          0.00231481
       39                   0                   0            0.833333          0.00115741
       40            0.916667           0.0833333            0.833333          0.00694444
       41            0.833333            0.166667            0.833333          0.00694444
       42                0.75                0.25            0.833333          0.00694444
       43            0.666667            0.333333            0.833333          0.00694444
       44            0.583333            0.416667            0.833333          0.00694444
       45                 0.5                 0.5            0.833333          0.00347222
       46            0.916667            0.916667            0.833333          0.00694444
       47            0.916667            0.833333            0.833333           0.0138889
       48            0.916667                0.75            0.833333           0.0138889
       49            0.916667            0.666667            0.833333           0.0138889
       50            0.916667            0.583333            0.833333           0.0138889
       51            0.833333            0.833333            0.833333          0.00694444
       52            0.833333                0.75            0.833333           0.0138889
       53            0.833333            0.666667            0.833333           0.0138889
       54            0.833333            0.583333            0.833333          0.00694444
       55                0.75                0.75            0.833333          0.00694444
       56                0.75            0.666667            0.833333           0.0138889
       57            0.666667            0.666667            0.833333          0.00231481
       58                   0                   0                0.75          0.00115741
       59            0.916667           0.0833333                0.75          0.00694444
       60            0.833333            0.166667                0.75          0.00694444
       61                0.75                0.25                0.75          0.00694444
       62            0.666667            0.333333                0.75          0.00694444
       63            0.583333            0.416667                0.75          0.00694444
       64                 0.5                 0.5                0.75          0.00347222
       65            0.916667            0.916667                0.75          0.00694444
       66            0.916667            0.833333                0.75           0.0138889
       67            0.916667                0.75                0.75           0.0138889
       68            0.916667            0.666667                0.75           0.0138889
       69            0.916667            0.583333                0.75           0.0138889
       70            0.833333            0.833333                0.75          0.00694444
       71            0.833333                0.75                0.75           0.0138889
       72            0.833333            0.666667                0.75           0.0138889
       73            0.833333            0.583333                0.75          0.00694444
       74                0.75                0.75                0.75          0.00694444
       75                0.75            0.666667                0.75           0.0138889
       76            0.666667            0.666667                0.75          0.00231481
       77                   0                   0            0.666667          0.00115741
       78            0.916667           0.0833333            0.666667          0.00694444
       79            0.833333            0.166667            0.666667          0.00694444
       80                0.75                0.25            0.666667          0.00694444
       81            0.666667            0.333333            0.666667          0.00694444
       82            0.583333            0.416667            0.666667          0.00694444
       83                 0.5                 0.5            0.666667          0.00347222
       84            0.916667            0.916667            0.666667          0.00694444
       85            0.916667            0.833333            0.666667           0.0138889
       86            0.916667                0.75            0.666667           0.0138889
       87            0.916667            0.666667            0.666667           0.0138889
       88            0.916667            0.583333            0.666667           0.0138889
       89            0.833333            0.833333            0.666667          0.00694444
       90            0.833333                0.75            0.666667           0.0138889
       91            0.833333            0.666667            0.666667           0.0138889
       92            0.833333            0.583333            0.666667          0.00694444
       93                0.75                0.75            0.666667          0.00694444
       94                0.75            0.666667            0.666667           0.0138889
       95            0.666667            0.666667            0.666667          0.00231481
       96                   0                   0            0.583333          0.00115741
       97            0.916667           0.0833333            0.583333          0.00694444
       98            0.833333            0.166667            0.583333          0.00694444
       99                0.75                0.25            0.583333          0.00694444
      100            0.666667            0.333333            0.583333          0.00694444
      101            0.583333            0.416667            0.583333          0.00694444
      102                 0.5                 0.5            0.583333          0.00347222
      103            0.916667            0.916667            0.583333          0.00694444
      104            0.916667            0.833333            0.583333           0.0138889
      105            0.916667                0.75            0.583333           0.0138889
      106            0.916667            0.666667            0.583333           0.0138889
      107            0.916667            0.583333            0.583333           0.0138889
      108            0.833333            0.833333            0.583333          0.00694444
      109            0.833333                0.75            0.583333           0.0138889
      110            0.833333            0.666667            0.583333           0.0138889
      111            0.833333            0.583333            0.583333          0.00694444
      112                0.75                0.75            0.583333          0.00694444
      113                0.75            0.666667            0.583333           0.0138889
      114            0.666667            0.666667            0.583333          0.00231481
      115                   0                   0                 0.5         0.000578704
      116            0.916667           0.0833333                 0.5          0.00347222
      117            0.833333            0.166667                 0.5          0.00347222
      118                0.75                0.25                 0.5          0.00347222
      119            0.666667            0.333333                 0.5          0.00347222
      120            0.583333            0.416667                 0.5          0.00347222
      121                 0.5                 0.5                 0.5          0.00173611
      122            0.916667            0.916667                 0.5          0.00347222
      123            0.916667            0.833333                 0.5          0.00694444
      124            0.916667                0.75                 0.5          0.00694444
      125            0.916667            0.666667                 0.5          0.00694444
      126            0.916667            0.583333                 0.5          0.00694444
      127            0.833333            0.833333                 0.5          0.00347222
      128            0.833333                0.75                 0.5          0.00694444
      129            0.833333            0.666667                 0.5          0.00694444
      130            0.833333            0.583333                 0.5          0.00347222
      131                0.75                0.75                 0.5          0.00347222
      132                0.75            0.666667                 0.5          0.00694444
      133            0.666667            0.666667                 0.5          0.00115741

           k-point number in this process = 133
       minimum distributed K point number = 133

  KPOINTS         CARTESIAN_X         CARTESIAN_Y         CARTESIAN_Z              WEIGHT
        1                   0                   0                   0          0.00115741
        2            0.916667            0.625463                   0          0.00694444
        3            0.833333            0.673575                   0          0.00694444
        4                0.75            0.721688                   0          0.00694444
        5            0.666667              0.7698                   0          0.00694444
        6            0.583333            0.817913                   0          0.00694444
        7                 0.5            0.866025                   0          0.00347222
        8            0.916667             1.58771                   0          0.00694444
        9            0.916667             1.49149                   0           0.0138889
       10            0.916667             1.39526                   0           0.0138889
       11            0.916667             1.29904                   0           0.0138889
       12            0.916667             1.20281                   0           0.0138889
       13            0.833333             1.44338                   0          0.00694444
       14            0.833333             1.34715                   0           0.0138889
       15            0.833333             1.25093                   0           0.0138889
       16            0.833333              1.1547                   0          0.00694444
       17                0.75             1.29904                   0          0.00694444
       18                0.75             1.20281                   0           0.0138889
       19            0.666667              1.1547                   0          0.00231481
       20                   0                   0            0.558629          0.00231481
       21            0.916667            0.625463            0.558629           0.0138889
       22            0.833333            0.673575            0.558629           0.0138889
       23                0.75            0.721688            0.558629           0.0138889
       24            0.666667              0.7698            0.558629           0.0138889
       25            0.583333            0.817913            0.558629           0.0138889
       26                 0.5            0.866025            0.558629          0.00694444
       27            0.916667             1.58771            0.558629           0.0138889
       28            0.916667             1.49149            0.558629           0.0277778
       29            0.916667             1.39526            0.558629           0.0277778
       30            0.916667             1.29904            0.558629           0.0277778
       31            0.916667             1.20281            0.558629           0.0277778
       32            0.833333             1.44338            0.558629           0.0138889
       33            0.833333             1.34715            0.558629           0.0277778
       34            0.833333             1.25093            0.558629           0.0277778
       35            0.833333              1.1547            0.558629           0.0138889
       36                0.75             1.29904            0.558629           0.0138889
       37                0.75             1.20281            0.558629           0.0277778
       38            0.666667              1.1547            0.558629          0.00462963
       39                   0                   0            0.507844          0.00231481
       40            0.916667            0.625463            0.507844           0.0138889
       41            0.833333            0.673575            0.507844           0.0138889
       42                0.75            0.721688            0.507844           0.0138889
       43            0.666667              0.7698            0.507844           0.0138889
       44            0.583333            0.817913            0.507844           0.0138889
       45                 0.5            0.866025            0.507844          0.00694444
       46            0.916667             1.58771            0.507844           0.0138889
       47            0.916667             1.49149            0.507844           0.0277778
       48            0.916667             1.39526            0.507844           0.0277778
       49            0.916667             1.29904            0.507844           0.0277778
       50            0.916667             1.20281            0.507844           0.0277778
       51            0.833333             1.44338            0.507844           0.0138889
       52            0.833333             1.34715            0.507844           0.0277778
       53            0.833333             1.25093            0.507844           0.0277778
       54            0.833333              1.1547            0.507844           0.0138889
       55                0.75             1.29904            0.507844           0.0138889
       56                0.75             1.20281            0.507844           0.0277778
       57            0.666667              1.1547            0.507844          0.00462963
       58                   0                   0             0.45706          0.00231481
       59            0.916667            0.625463             0.45706           0.0138889
       60            0.833333            0.673575             0.45706           0.0138889
       61                0.75            0.721688             0.45706           0.0138889
       62            0.666667              0.7698             0.45706           0.0138889
       63            0.583333            0.817913             0.45706           0.0138889
       64                 0.5            0.866025             0.45706          0.00694444
       65            0.916667             1.58771             0.45706           0.0138889
       66            0.916667             1.49149             0.45706           0.0277778
       67            0.916667             1.39526             0.45706           0.0277778
       68            0.916667             1.29904             0.45706           0.0277778
       69            0.916667             1.20281             0.45706           0.0277778
       70            0.833333             1.44338             0.45706           0.0138889
       71            0.833333             1.34715             0.45706           0.0277778
       72            0.833333             1.25093             0.45706           0.0277778
       73            0.833333              1.1547             0.45706           0.0138889
       74                0.75             1.29904             0.45706           0.0138889
       75                0.75             1.20281             0.45706           0.0277778
       76            0.666667              1.1547             0.45706          0.00462963
       77                   0                   0            0.406275          0.00231481
       78            0.916667            0.625463            0.406275           0.0138889
       79            0.833333            0.673575            0.406275           0.0138889
       80                0.75            0.721688            0.406275           0.0138889
       81            0.666667              0.7698            0.406275           0.0138889
       82            0.583333            0.817913            0.406275           0.0138889
       83                 0.5            0.866025            0.406275          0.00694444
       84            0.916667             1.58771            0.406275           0.0138889
       85            0.916667             1.49149            0.406275           0.0277778
       86            0.916667             1.39526            0.406275           0.0277778
       87            0.916667             1.29904            0.406275           0.0277778
       88            0.916667             1.20281            0.406275           0.0277778
       89            0.833333             1.44338            0.406275           0.0138889
       90            0.833333             1.34715            0.406275           0.0277778
       91            0.833333             1.25093            0.406275           0.0277778
       92            0.833333              1.1547            0.406275           0.0138889
       93                0.75             1.29904            0.406275           0.0138889
       94                0.75             1.20281            0.406275           0.0277778
       95            0.666667              1.1547            0.406275          0.00462963
       96                   0                   0            0.355491          0.00231481
       97            0.916667            0.625463            0.355491           0.0138889
       98            0.833333            0.673575            0.355491           0.0138889
       99                0.75            0.721688            0.355491           0.0138889
      100            0.666667              0.7698            0.355491           0.0138889
      101            0.583333            0.817913            0.355491           0.0138889
      102                 0.5            0.866025            0.355491          0.00694444
      103            0.916667             1.58771            0.355491           0.0138889
      104            0.916667             1.49149            0.355491           0.0277778
      105            0.916667             1.39526            0.355491           0.0277778
      106            0.916667             1.29904            0.355491           0.0277778
      107            0.916667             1.20281            0.355491           0.0277778
      108            0.833333             1.44338            0.355491           0.0138889
      109            0.833333             1.34715            0.355491           0.0277778
      110            0.833333             1.25093            0.355491           0.0277778
      111            0.833333              1.1547            0.355491           0.0138889
      112                0.75             1.29904            0.355491           0.0138889
      113                0.75             1.20281            0.355491           0.0277778
      114            0.666667              1.1547            0.355491          0.00462963
      115                   0                   0            0.304706          0.00115741
      116            0.916667            0.625463            0.304706          0.00694444
      117            0.833333            0.673575            0.304706          0.00694444
      118                0.75            0.721688            0.304706          0.00694444
      119            0.666667              0.7698            0.304706          0.00694444
      120            0.583333            0.817913            0.304706          0.00694444
      121                 0.5            0.866025            0.304706          0.00347222
      122            0.916667             1.58771            0.304706          0.00694444
      123            0.916667             1.49149            0.304706           0.0138889
      124            0.916667             1.39526            0.304706           0.0138889
      125            0.916667             1.29904            0.304706           0.0138889
      126            0.916667             1.20281            0.304706           0.0138889
      127            0.833333             1.44338            0.304706          0.00694444
      128            0.833333             1.34715            0.304706           0.0138889
      129            0.833333             1.25093            0.304706           0.0138889
      130            0.833333              1.1547            0.304706          0.00694444
      131                0.75             1.29904            0.304706          0.00694444
      132                0.75             1.20281            0.304706           0.0138889
      133            0.666667              1.1547            0.304706          0.00231481

  KPOINTS            DIRECT_X            DIRECT_Y            DIRECT_Z              WEIGHT
        1                   0                   0                   0          0.00115741
        2            0.916667           0.0833333                   0          0.00694444
        3            0.833333            0.166667                   0          0.00694444
        4                0.75                0.25                   0          0.00694444
        5            0.666667            0.333333                   0          0.00694444
        6            0.583333            0.416667                   0          0.00694444
        7                 0.5                 0.5                   0          0.00347222
        8            0.916667            0.916667                   0          0.00694444
        9            0.916667            0.833333                   0           0.0138889
       10            0.916667                0.75                   0           0.0138889
       11            0.916667            0.666667                   0           0.0138889
       12            0.916667            0.583333                   0           0.0138889
       13            0.833333            0.833333                   0          0.00694444
       14            0.833333                0.75                   0           0.0138889
       15            0.833333            0.666667                   0           0.0138889
       16            0.833333            0.583333                   0          0.00694444
       17                0.75                0.75                   0          0.00694444
       18                0.75            0.666667                   0           0.0138889
       19            0.666667            0.666667                   0          0.00231481
       20                   0                   0            0.916667          0.00231481
       21            0.916667           0.0833333            0.916667           0.0138889
       22            0.833333            0.166667            0.916667           0.0138889
       23                0.75                0.25            0.916667           0.0138889
       24            0.666667            0.333333            0.916667           0.0138889
       25            0.583333            0.416667            0.916667           0.0138889
       26                 0.5                 0.5            0.916667          0.00694444
       27            0.916667            0.916667            0.916667           0.0138889
       28            0.916667            0.833333            0.916667           0.0277778
       29            0.916667                0.75            0.916667           0.0277778
       30            0.916667            0.666667            0.916667           0.0277778
       31            0.916667            0.583333            0.916667           0.0277778
       32            0.833333            0.833333            0.916667           0.0138889
       33            0.833333                0.75            0.916667           0.0277778
       34            0.833333            0.666667            0.916667           0.0277778
       35            0.833333            0.583333            0.916667           0.0138889
       36                0.75                0.75            0.916667           0.0138889
       37                0.75            0.666667            0.916667           0.0277778
       38            0.666667            0.666667            0.916667          0.00462963
       39                   0                   0            0.833333          0.00231481
       40            0.916667           0.0833333            0.833333           0.0138889
       41            0.833333            0.166667            0.833333           0.0138889
       42                0.75                0.25            0.833333           0.0138889
       43            0.666667            0.333333            0.833333           0.0138889
       44            0.583333            0.416667            0.833333           0.0138889
       45                 0.5                 0.5            0.833333          0.00694444
       46            0.916667            0.916667            0.833333           0.0138889
       47            0.916667            0.833333            0.833333           0.0277778
       48            0.916667                0.75            0.833333           0.0277778
       49            0.916667            0.666667            0.833333           0.0277778
       50            0.916667            0.583333            0.833333           0.0277778
       51            0.833333            0.833333            0.833333           0.0138889
       52            0.833333                0.75            0.833333           0.0277778
       53            0.833333            0.666667            0.833333           0.0277778
       54            0.833333            0.583333            0.833333           0.0138889
       55                0.75                0.75            0.833333           0.0138889
       56                0.75            0.666667            0.833333           0.0277778
       57            0.666667            0.666667            0.833333          0.00462963
       58                   0                   0                0.75          0.00231481
       59            0.916667           0.0833333                0.75           0.0138889
       60            0.833333            0.166667                0.75           0.0138889
       61                0.75                0.25                0.75           0.0138889
       62            0.666667            0.333333                0.75           0.0138889
       63            0.583333            0.416667                0.75           0.0138889
       64                 0.5                 0.5                0.75          0.00694444
       65            0.916667            0.916667                0.75           0.0138889
       66            0.916667            0.833333                0.75           0.0277778
       67            0.916667                0.75                0.75           0.0277778
       68            0.916667            0.666667                0.75           0.0277778
       69            0.916667            0.583333                0.75           0.0277778
       70            0.833333            0.833333                0.75           0.0138889
       71            0.833333                0.75                0.75           0.0277778
       72            0.833333            0.666667                0.75           0.0277778
       73            0.833333            0.583333                0.75           0.0138889
       74                0.75                0.75                0.75           0.0138889
       75                0.75            0.666667                0.75           0.0277778
       76            0.666667            0.666667                0.75          0.00462963
       77                   0                   0            0.666667          0.00231481
       78            0.916667           0.0833333            0.666667           0.0138889
       79            0.833333            0.166667            0.666667           0.0138889
       80                0.75                0.25            0.666667           0.0138889
       81            0.666667            0.333333            0.666667           0.0138889
       82            0.583333            0.416667            0.666667           0.0138889
       83                 0.5                 0.5            0.666667          0.00694444
       84            0.916667            0.916667            0.666667           0.0138889
       85            0.916667            0.833333            0.666667           0.0277778
       86            0.916667                0.75            0.666667           0.0277778
       87            0.916667            0.666667            0.666667           0.0277778
       88            0.916667            0.583333            0.666667           0.0277778
       89            0.833333            0.833333            0.666667           0.0138889
       90            0.833333                0.75            0.666667           0.0277778
       91            0.833333            0.666667            0.666667           0.0277778
       92            0.833333            0.583333            0.666667           0.0138889
       93                0.75                0.75            0.666667           0.0138889
       94                0.75            0.666667            0.666667           0.0277778
       95            0.666667            0.666667            0.666667          0.00462963
       96                   0                   0            0.583333          0.00231481
       97            0.916667           0.0833333            0.583333           0.0138889
       98            0.833333            0.166667            0.583333           0.0138889
       99                0.75                0.25            0.583333           0.0138889
      100            0.666667            0.333333            0.583333           0.0138889
      101            0.583333            0.416667            0.583333           0.0138889
      102                 0.5                 0.5            0.583333          0.00694444
      103            0.916667            0.916667            0.583333           0.0138889
      104            0.916667            0.833333            0.583333           0.0277778
      105            0.916667                0.75            0.583333           0.0277778
      106            0.916667            0.666667            0.583333           0.0277778
      107            0.916667            0.583333            0.583333           0.0277778
      108            0.833333            0.833333            0.583333           0.0138889
      109            0.833333                0.75            0.583333           0.0277778
      110            0.833333            0.666667            0.583333           0.0277778
      111            0.833333            0.583333            0.583333           0.0138889
      112                0.75                0.75            0.583333           0.0138889
      113                0.75            0.666667            0.583333           0.0277778
      114            0.666667            0.666667            0.583333          0.00462963
      115                   0                   0                 0.5          0.00115741
      116            0.916667           0.0833333                 0.5          0.00694444
      117            0.833333            0.166667                 0.5          0.00694444
      118                0.75                0.25                 0.5          0.00694444
      119            0.666667            0.333333                 0.5          0.00694444
      120            0.583333            0.416667                 0.5          0.00694444
      121                 0.5                 0.5                 0.5          0.00347222
      122            0.916667            0.916667                 0.5          0.00694444
      123            0.916667            0.833333                 0.5           0.0138889
      124            0.916667                0.75                 0.5           0.0138889
      125            0.916667            0.666667                 0.5           0.0138889
      126            0.916667            0.583333                 0.5           0.0138889
      127            0.833333            0.833333                 0.5          0.00694444
      128            0.833333                0.75                 0.5           0.0138889
      129            0.833333            0.666667                 0.5           0.0138889
      130            0.833333            0.583333                 0.5          0.00694444
      131                0.75                0.75                 0.5          0.00694444
      132                0.75            0.666667                 0.5           0.0138889
      133            0.666667            0.666667                 0.5          0.00231481
 DONE : INIT K-POINTS Time : 0.0868709 (SEC)





 >>>>>>>>>>>>>>>>>>>>>>>>>>>>>>>>>>>>>>>>>>>>>>>>>>>>>>>>>>>>>>>>>>>>>>
 |                                                                    |
 | Setup plane waves:                                                 |
 | Use the energy cutoff and the lattice vectors to generate the      |
 | dimensions of FFT grid. The number of FFT grid on each processor   |
 | is 'nrxx'. The number of plane wave basis in reciprocal space is   |
 | different for charege/potential and wave functions. We also set    |
 | the 'sticks' for the parallel of FFT.                              |
 |                                                                    |
 <<<<<<<<<<<<<<<<<<<<<<<<<<<<<<<<<<<<<<<<<<<<<<<<<<<<<<<<<<<<<<<<<<<<<<





 SETUP THE PLANE WAVE BASIS
     energy cutoff for wavefunc (unit:Ry) = 60
            [fft grid for wave functions] = 27, 27, 40
          [fft grid for charge/potential] = 27, 27, 40
                      [fft grid division] = 1, 1, 1
      [big fft grid for charge/potential] = 27, 27, 40
                                     nbxx = 29160
                                     nrxx = 29160

 SETUP PLANE WAVES FOR CHARGE/POTENTIAL
                    number of plane waves = 10407
                         number of sticks = 397

 SETUP PLANE WAVES FOR WAVE FUNCTIONS
                    number of plane waves = 2973
                         number of sticks = 163

 PARALLEL PW FOR CHARGE/POTENTIAL
     PROC   COLUMNS(POT)             PW
        1            397          10407
 --------------- sum -------------------
        1            397          10407

 PARALLEL PW FOR WAVE FUNCTIONS
     PROC     COLUMNS(W)             PW
        1            163           2973
 --------------- sum -------------------
        1            163           2973

 SETUP COORDINATES OF PLANE WAVES
              number of total plane waves = 10407

 SETUP COORDINATES OF PLANE WAVES
                            number of |g| = 567
                                  max |g| = 145.486
                                  min |g| = 0
 DONE : INIT PLANEWAVE Time : 0.124082 (SEC)

                                     npwx = 1329

 SETUP NONLOCAL PSEUDOPOTENTIALS IN PLANE WAVE BASIS
 Al non-local projectors:
      TOTAL NUMBER OF NONLOCAL PROJECTORS = 0

 nhm = 0, not allocate some matrix. DONE : LOCAL POTENTIAL Time : 0.205161 (SEC)


 Init Non-Local PseudoPotential table : 
 Init Non-Local-Pseudopotential done.
 DONE : NON-LOCAL POTENTIAL Time : 0.205207 (SEC)

                                start_pot = atomic
 DONE : INIT POTENTIAL Time : 0.263794 (SEC)


 Make real space PAO into reciprocal space.
       max mesh points in Pseudopotential = 1601
     dq(describe PAO in reciprocal space) = 0.01
                                    max q = 934

 number of pseudo atomic orbitals for Al is 0
 DONE : INIT BASIS Time : 3.05902 (SEC)

 -------------------------------------------
 -------------------------------------------

 PW ALGORITHM --------------- ION=   1  ELEC=   1--------------------------------
  K-point    CG iter num      Time(Sec)
        1       6.933333       0.145868
        2       7.600000       0.158246
        3       6.666667       0.140375
        4       7.666667       0.159570
        5       8.066667       0.165801
        6       7.066667       0.147130
        7       7.066667       0.148251
        8       7.133333       0.149219
        9       7.733333       0.161328
       10       7.200000       0.150978
       11       8.066667       0.167500
       12       7.533333       0.157431
       13       6.800000       0.143817
       14       7.200000       0.152354
       15       7.733333       0.162085
       16       6.933333       0.147319
       17       7.066667       0.150075
       18       7.933333       0.166948
       19       6.866667       0.147956
       20       7.133333       0.152893
       21       8.266667       0.174835
       22       8.000000       0.169750
       23       7.866667       0.167824
       24       8.333333       0.176376
       25       8.333333       0.176055
       26       7.266667       0.156552
       27       7.666667       0.163324
       28       8.933333       0.187820
       29       7.800000       0.166775
       30       7.533333       0.159900
       31       7.866667       0.163436
       32       7.800000       0.165803
       33       8.400000       0.176797
       34       8.266667       0.174363
       35       7.000000       0.150730
       36       7.400000       0.158564
       37       7.933333       0.167637
       38       6.666667       0.144619
       39       7.933333       0.168692
       40       8.066667       0.170838
       41       7.666667       0.164214
       42       7.733333       0.164583
       43       7.733333       0.165263
       44       7.600000       0.162406
       45       7.333333       0.156835
       46       7.333333       0.157313
       47       7.866667       0.167201
       48       7.733333       0.164951
       49       8.200000       0.173478
       50       7.866667       0.168941
       51       7.266667       0.155153
       52       7.866667       0.167115
       53       8.400000       0.177405
       54       7.800000       0.165590
       55       7.466667       0.158799
       56       8.933333       0.187635
       57       6.666667       0.145106
       58       7.133333       0.153812
       59       8.066667       0.171343
       60       7.866667       0.167627
       61       8.000000       0.169842
       62       7.333333       0.156929
       63       7.200000       0.153860
       64       7.333333       0.156722
       65       8.200000       0.174261
       66       8.466667       0.178458
       67       7.733333       0.165011
       68       7.200000       0.155430
       69       8.133333       0.171549
       70       7.533333       0.161091
       71       7.266667       0.163301
       72       8.000000       0.180307
       73       7.400000       0.164890
       74       7.800000       0.169586
       75       8.466667       0.183498
       76       7.066667       0.157392
       77       7.600000       0.166649
       78       6.933333       0.153153
       79       7.666667       0.167083
       80       7.600000       0.165894
       81       7.533333       0.164104
       82       7.800000       0.169705
       83       6.866667       0.152092
       84       6.866667       0.151613
       85       7.600000       0.166808
       86       8.800000       0.190400
       87       7.466667       0.163792
       88       7.866667       0.171109
       89       7.200000       0.159161
       90       7.533333       0.164677
       91       8.400000       0.181359
       92       7.600000       0.167475
       93       6.933333       0.154090
       94       8.400000       0.181649
       95       7.000000       0.155430
       96       7.000000       0.154769
       97       7.266667       0.159833
       98       7.466667       0.164416
       99       7.333333       0.160947
      100       8.133333       0.176258
      101       7.600000       0.166743
      102       6.933333       0.152945
      103       7.333333       0.159926
      104       7.733333       0.168624
      105       7.800000       0.169866
      106       7.466667       0.162766
      107       7.666667       0.167166
      108       7.400000       0.161892
      109       7.600000       0.165519
      110       7.933333       0.173057
      111       7.600000       0.166998
      112       6.733333       0.148886
      113       7.800000       0.169187
      114       6.866667       0.152861
      115       6.200000       0.138120
      116       7.266667       0.158990
      117       7.466667       0.163059
      118       6.866667       0.151423
      119       7.266667       0.158858
      120       7.000000       0.153040
      121       6.600000       0.146871
      122       6.600000       0.146144
      123       7.333333       0.160308
      124       6.666667       0.148225
      125       6.800000       0.149336
      126       6.866667       0.150595
      127       6.000000       0.134093
      128       6.933333       0.152421
      129       7.000000       0.153144
      130       6.600000       0.144741
      131       6.066667       0.136264
      132       7.000000       0.152691
      133       6.400000       0.141685

 Density error is 0.210924691982
                          Error Threshold = 0.010000000000

       Energy                       Rydberg                            eV
   E_KohnSham               -8.450155646939             -114.970265785248
     E_Harris               -8.505686865419             -115.725806773456
      E_Fermi               +0.824343115655              +11.215763479981

 PW ALGORITHM --------------- ION=   1  ELEC=   2--------------------------------
  K-point    CG iter num      Time(Sec)
        1       3.266667       0.082532
        2       2.000000       0.056073
        3       2.000000       0.056129
        4       2.000000       0.055912
        5       2.000000       0.055968
        6       2.000000       0.056141
        7       2.266667       0.061357
        8       2.133333       0.058829
        9       2.000000       0.055820
       10       2.000000       0.055807
       11       2.000000       0.055184
       12       2.000000       0.055468
       13       2.000000       0.056024
       14       2.066667       0.057270
       15       2.000000       0.055858
       16       2.333333       0.061429
       17       2.000000       0.055946
       18       2.266667       0.061371
       19       2.000000       0.055784
       20       2.200000       0.059035
       21       2.200000       0.059985
       22       2.000000       0.055605
       23       2.000000       0.056444
       24       2.000000       0.055521
       25       2.000000       0.055766
       26       2.000000       0.056155
       27       2.000000       0.055966
       28       2.066667       0.056799
       29       2.000000       0.055529
       30       2.000000       0.055875
       31       2.000000       0.056004
       32       2.000000       0.055724
       33       2.133333       0.058069
       34       2.000000       0.055516
       35       2.000000       0.055780
       36       2.066667       0.057437
       37       2.066667       0.056647
       38       2.000000       0.055790
       39       2.066667       0.057266
       40       2.000000       0.056015
       41       2.000000       0.055662
       42       2.000000       0.055554
       43       2.000000       0.055666
       44       2.066667       0.057324
       45       2.000000       0.055732
       46       2.000000       0.055536
       47       2.000000       0.055803
       48       2.200000       0.059495
       49       2.000000       0.056005
       50       2.000000       0.055210
       51       2.000000       0.055161
       52       2.000000       0.055766
       53       2.066667       0.056788
       54       2.000000       0.055715
       55       2.266667       0.060583
       56       2.000000       0.055603
       57       2.000000       0.055530
       58       2.133333       0.057910
       59       2.000000       0.055522
       60       2.066667       0.056332
       61       2.000000       0.055320
       62       2.200000       0.059486
       63       2.400000       0.063303
       64       2.133333       0.058303
       65       2.000000       0.055991
       66       2.000000       0.055651
       67       2.000000       0.055499
       68       2.000000       0.055759
       69       2.000000       0.055545
       70       2.066667       0.057396
       71       2.000000       0.055128
       72       2.133333       0.057827
       73       2.000000       0.055845
       74       2.000000       0.055960
       75       2.000000       0.055196
       76       2.000000       0.055486
       77       2.000000       0.054849
       78       2.333333       0.062333
       79       2.000000       0.055133
       80       2.000000       0.054831
       81       2.000000       0.055888
       82       2.000000       0.055431
       83       2.000000       0.055849
       84       2.000000       0.055041
       85       2.000000       0.055216
       86       2.000000       0.055126
       87       2.333333       0.062227
       88       2.000000       0.055550
       89       2.000000       0.055100
       90       2.333333       0.062599
       91       2.066667       0.057024
       92       2.000000       0.055744
       93       2.000000       0.055884
       94       2.000000       0.055766
       95       2.000000       0.056333
       96       2.000000       0.055336
       97       2.000000       0.055760
       98       2.000000       0.055643
       99       2.733333       0.070072
      100       2.133333       0.058261
      101       2.000000       0.055403
      102       2.200000       0.059413
      103       2.066667       0.057147
      104       2.000000       0.055587
      105       2.333333       0.062153
      106       2.266667       0.060860
      107       2.000000       0.056219
      108       2.000000       0.055966
      109       2.000000       0.055510
      110       2.000000       0.055456
      111       2.000000       0.055411
      112       2.000000       0.056182
      113       2.000000       0.055555
      114       2.000000       0.055514
      115       2.000000       0.055504
      116       2.000000       0.055384
      117       2.000000       0.055604
      118       2.066667       0.056950
      119       2.133333       0.058031
      120       2.000000       0.055792
      121       2.000000       0.055846
      122       2.466667       0.064581
      123       2.000000       0.055221
      124       2.000000       0.055461
      125       2.000000       0.055486
      126       2.000000       0.055528
      127       2.200000       0.059605
      128       2.000000       0.055469
      129       2.000000       0.055607
      130       2.000000       0.055652
      131       2.266667       0.060493
      132       2.000000       0.055707
      133       2.000000       0.055709

 Density error is 0.015847574042
                          Error Threshold = 0.003515411533

       Energy                       Rydberg                            eV
   E_KohnSham               -8.469043237729             -115.227244641477
     E_Harris               -8.461200984915             -115.120545318056
      E_Fermi               +0.821565133553              +11.177967094454

 PW ALGORITHM --------------- ION=   1  ELEC=   3--------------------------------
  K-point    CG iter num      Time(Sec)
        1       4.333333       0.101840
        2       4.466667       0.104363
        3       3.000000       0.075461
        4       2.866667       0.073507
        5       2.533333       0.067231
        6       2.866667       0.072740
        7       2.533333       0.067274
        8       3.866667       0.093993
        9       2.733333       0.070225
       10       2.600000       0.068390
       11       2.600000       0.068098
       12       3.200000       0.079802
       13       3.066667       0.077518
       14       2.666667       0.069132
       15       2.800000       0.071016
       16       2.933333       0.074570
       17       3.266667       0.080968
       18       3.266667       0.080462
       19       4.000000       0.095797
       20       3.733333       0.089263
       21       4.266667       0.100121
       22       3.200000       0.079283
       23       2.866667       0.073374
       24       3.000000       0.075370
       25       2.466667       0.061971
       26       2.466667       0.059937
       27       4.666667       0.099680
       28       3.066667       0.069840
       29       2.600000       0.061496
       30       2.733333       0.065404
       31       2.466667       0.060236
       32       2.866667       0.067342
       33       2.933333       0.068748
       34       2.800000       0.066900
       35       3.333333       0.077183
       36       3.533333       0.080054
       37       4.000000       0.088572
       38       2.800000       0.066847
       39       3.600000       0.080296
       40       4.533333       0.099101
       41       3.133333       0.072935
       42       2.800000       0.066164
       43       3.400000       0.076570
       44       2.466667       0.061166
       45       2.266667       0.056206
       46       3.600000       0.082129
       47       3.266667       0.074739
       48       2.733333       0.065958
       49       2.666667       0.065394
       50       2.666667       0.064946
       51       2.666667       0.063875
       52       3.133333       0.072120
       53       2.933333       0.069245
       54       2.600000       0.063197
       55       2.733333       0.065951
       56       2.800000       0.067303
       57       2.800000       0.063255
       58       3.866667       0.091565
       59       3.133333       0.076017
       60       3.400000       0.081053
       61       2.866667       0.070700
       62       2.800000       0.069625
       63       3.333333       0.080514
       64       2.333333       0.060482
       65       2.933333       0.072008
       66       3.066667       0.075321
       67       3.133333       0.076033
       68       2.600000       0.065991
       69       2.333333       0.061087
       70       3.000000       0.073942
       71       2.800000       0.070059
       72       2.733333       0.069334
       73       2.466667       0.063417
       74       3.266667       0.079462
       75       2.866667       0.071515
       76       2.600000       0.065788
       77       3.266667       0.078577
       78       2.933333       0.072322
       79       3.200000       0.077635
       80       2.800000       0.070350
       81       2.533333       0.064361
       82       2.466667       0.063922
       83       2.266667       0.060383
       84       3.066667       0.075352
       85       3.333333       0.080302
       86       3.200000       0.078286
       87       2.466667       0.063538
       88       2.266667       0.059973
       89       3.266667       0.079731
       90       2.733333       0.068825
       91       2.533333       0.064923
       92       2.733333       0.068968
       93       3.266667       0.079466
       94       2.600000       0.065975
       95       2.866667       0.071324
       96       3.133333       0.075768
       97       3.666667       0.086014
       98       3.066667       0.074435
       99       3.200000       0.077357
      100       2.800000       0.069725
      101       2.533333       0.064714
      102       2.266667       0.059507
      103       3.666667       0.086131
      104       3.000000       0.073311
      105       2.733333       0.068701
      106       2.466667       0.063033
      107       2.600000       0.065936
      108       2.666667       0.066826
      109       2.866667       0.071072
      110       2.400000       0.061890
      111       2.266667       0.059718
      112       3.266667       0.078182
      113       2.866667       0.071106
      114       3.333333       0.080442
      115       2.333333       0.060673
      116       3.066667       0.074668
      117       2.933333       0.072203
      118       3.666667       0.086525
      119       2.933333       0.072897
      120       2.600000       0.066031
      121       2.400000       0.062327
      122       3.600000       0.084942
      123       3.066667       0.074612
      124       2.733333       0.068462
      125       2.466667       0.063477
      126       2.533333       0.064591
      127       2.466667       0.062793
      128       2.733333       0.067478
      129       2.533333       0.063905
      130       2.733333       0.068135
      131       2.200000       0.057752
      132       2.666667       0.066561
      133       2.866667       0.070910

 Density error is 0.000081672299
                          Error Threshold = 0.000264126234

       Energy                       Rydberg                            eV
   E_KohnSham               -8.469720086776             -115.236453645209
     E_Harris               -8.469739074547             -115.236711987087
      E_Fermi               +0.823316549465              +11.201796330419

 PW ALGORITHM --------------- ION=   1  ELEC=   4--------------------------------
  K-point    CG iter num      Time(Sec)
        1       6.666667       0.143829
        2       5.800000       0.126341
        3       4.600000       0.103362
        4       4.133333       0.094466
        5       4.266667       0.097520
        6       4.200000       0.096477
        7       4.400000       0.100567
        8       5.400000       0.119861
        9       4.333333       0.099611
       10       4.000000       0.092471
       11       4.333333       0.099467
       12       4.333333       0.099771
       13       6.400000       0.136014
       14       4.066667       0.083332
       15       4.733333       0.108614
[...]
 [spin1_state]        7      21.417276       0.000000
 [spin1_state]        8      23.642749       0.000000
 [spin1_state]        9      25.347272       0.000000
 [spin1_state]       10      26.585703       0.000000
 [spin1_state]       11      28.297510       0.000000
 [spin1_state]       12      30.500895       0.000000
 [spin1_state]       13      33.905384       0.000000
 [spin1_state]       14      35.116544       0.000000
 [spin1_state]       15      38.813609       0.000000

 114/133 kpoint (Cartesian) = 0.666667 1.154701 0.355491 (1326 pws)
 [spin1_state]        1       7.835905       0.004630
 [spin1_state]        2       7.836043       0.004630
 [spin1_state]        3       8.251239       0.004630
 [spin1_state]        4       9.627097       0.004630
 [spin1_state]        5      10.451744       0.004630
 [spin1_state]        6      10.451794       0.004630
 [spin1_state]        7      23.537198       0.000000
 [spin1_state]        8      23.537217       0.000000
 [spin1_state]        9      23.580054       0.000000
 [spin1_state]       10      27.711657       0.000000
 [spin1_state]       11      28.189596       0.000000
 [spin1_state]       12      28.189600       0.000000
 [spin1_state]       13      37.751069       0.000000
 [spin1_state]       14      38.384118       0.000000
 [spin1_state]       15      38.384228       0.000000

 115/133 kpoint (Cartesian) = 0.000000 0.000000 0.304706 (1280 pws)
 [spin1_state]        1      -0.887073       0.001157
 [spin1_state]        2      -0.886955       0.001157
 [spin1_state]        3      15.546197       0.000000
 [spin1_state]        4      15.546205       0.000000
 [spin1_state]        5      27.665693       0.000000
 [spin1_state]        6      27.665693       0.000000
 [spin1_state]        7      27.665828       0.000000
 [spin1_state]        8      27.665828       0.000000
 [spin1_state]        9      28.354187       0.000000
 [spin1_state]       10      28.354187       0.000000
 [spin1_state]       11      28.354298       0.000000
 [spin1_state]       12      28.354298       0.000000
 [spin1_state]       13      29.146187       0.000000
 [spin1_state]       14      29.146343       0.000000
 [spin1_state]       15      32.892667       0.000000

 116/133 kpoint (Cartesian) = 0.916667 0.625463 0.304706 (1284 pws)
 [spin1_state]        1      -0.682182       0.006944
 [spin1_state]        2      -0.682064       0.006944
 [spin1_state]        3      15.730092       0.000000
 [spin1_state]        4      15.730101       0.000000
 [spin1_state]        5      23.878955       0.000000
 [spin1_state]        6      23.879084       0.000000
 [spin1_state]        7      25.709424       0.000000
 [spin1_state]        8      25.709549       0.000000
 [spin1_state]        9      27.460885       0.000000
 [spin1_state]       10      27.460992       0.000000
 [spin1_state]       11      30.720796       0.000000
 [spin1_state]       12      30.720917       0.000000
 [spin1_state]       13      32.380238       0.000000
 [spin1_state]       14      32.380369       0.000000
 [spin1_state]       15      35.048677       0.000000

 117/133 kpoint (Cartesian) = 0.833333 0.673575 0.304706 (1288 pws)
 [spin1_state]        1      -0.067960       0.006944
 [spin1_state]        2      -0.067841       0.006944
 [spin1_state]        3      16.233132       0.000000
 [spin1_state]        4      16.233143       0.000000
 [spin1_state]        5      19.797110       0.000000
 [spin1_state]        6      19.797232       0.000000
 [spin1_state]        7      23.857171       0.000000
 [spin1_state]        8      23.857294       0.000000
 [spin1_state]        9      25.868975       0.000000
 [spin1_state]       10      25.869074       0.000000
 [spin1_state]       11      33.797928       0.000000
 [spin1_state]       12      33.798050       0.000000
 [spin1_state]       13      35.251948       0.000000
 [spin1_state]       14      35.252032       0.000000
 [spin1_state]       15      36.775049       0.000000

 118/133 kpoint (Cartesian) = 0.750000 0.721688 0.304706 (1302 pws)
 [spin1_state]        1       0.953864       0.006944
 [spin1_state]        2       0.953983       0.006944
 [spin1_state]        3      15.507813       0.000000
 [spin1_state]        4      15.507913       0.000000
 [spin1_state]        5      17.654509       0.000000
 [spin1_state]        6      17.654540       0.000000
 [spin1_state]        7      22.410658       0.000000
 [spin1_state]        8      22.410782       0.000000
 [spin1_state]        9      24.514854       0.000000
 [spin1_state]       10      24.514947       0.000000
 [spin1_state]       11      32.638604       0.000000
 [spin1_state]       12      32.638614       0.000000
 [spin1_state]       13      37.195328       0.000000
 [spin1_state]       14      37.195440       0.000000
 [spin1_state]       15      38.647561       0.000000

 119/133 kpoint (Cartesian) = 0.666667 0.769800 0.304706 (1308 pws)
 [spin1_state]        1       2.378128       0.006944
 [spin1_state]        2       2.378249       0.006944
 [spin1_state]        3      12.261931       0.000000
 [spin1_state]        4      12.262045       0.000000
 [spin1_state]        5      18.763768       0.000000
 [spin1_state]        6      18.763786       0.000000
 [spin1_state]        7      21.376216       0.000000
 [spin1_state]        8      21.376339       0.000000
 [spin1_state]        9      23.513413       0.000000
 [spin1_state]       10      23.513499       0.000000
 [spin1_state]       11      29.391884       0.000000
 [spin1_state]       12      29.391894       0.000000
 [spin1_state]       13      37.913179       0.000000
 [spin1_state]       14      37.913180       0.000000
 [spin1_state]       15      39.668668       0.000000

 120/133 kpoint (Cartesian) = 0.583333 0.817913 0.304706 (1310 pws)
 [spin1_state]        1       4.181784       0.006944
 [spin1_state]        2       4.181907       0.006944
 [spin1_state]        3       9.269897       0.006944
 [spin1_state]        4       9.270009       0.006944
 [spin1_state]        5      20.258982       0.000000
 [spin1_state]        6      20.259013       0.000000
 [spin1_state]        7      20.755245       0.000000
 [spin1_state]        8      20.755368       0.000000
 [spin1_state]        9      22.866005       0.000000
 [spin1_state]       10      22.866071       0.000000
 [spin1_state]       11      26.725448       0.000000
 [spin1_state]       12      26.725464       0.000000
 [spin1_state]       13      37.344077       0.000000
 [spin1_state]       14      37.344079       0.000000
 [spin1_state]       15      39.452746       0.000000

 121/133 kpoint (Cartesian) = 0.500000 0.866025 0.304706 (1300 pws)
 [spin1_state]        1       5.855170       0.003472
 [spin1_state]        2       5.855312       0.003472
 [spin1_state]        3       7.196255       0.003472
 [spin1_state]        4       7.196348       0.003472
 [spin1_state]        5      20.548214       0.000000
 [spin1_state]        6      20.548337       0.000000
 [spin1_state]        7      21.251923       0.000000
 [spin1_state]        8      21.251990       0.000000
 [spin1_state]        9      22.547942       0.000000
 [spin1_state]       10      22.547958       0.000000
 [spin1_state]       11      25.445287       0.000000
 [spin1_state]       12      25.445315       0.000000
 [spin1_state]       13      37.145168       0.000000
 [spin1_state]       14      37.145171       0.000000
 [spin1_state]       15      39.326570       0.000000

 122/133 kpoint (Cartesian) = 0.916667 1.587713 0.304706 (1296 pws)
 [spin1_state]        1      -0.272615       0.006944
 [spin1_state]        2      -0.272497       0.006944
 [spin1_state]        3      16.082413       0.000000
 [spin1_state]        4      16.082422       0.000000
 [spin1_state]        5      21.439455       0.000000
 [spin1_state]        6      21.439593       0.000000
 [spin1_state]        7      22.613852       0.000000
 [spin1_state]        8      22.613952       0.000000
 [spin1_state]        9      29.109224       0.000000
 [spin1_state]       10      29.109345       0.000000
 [spin1_state]       11      30.050698       0.000000
 [spin1_state]       12      30.050800       0.000000
 [spin1_state]       13      36.415089       0.000000
 [spin1_state]       14      36.415229       0.000000
 [spin1_state]       15      37.449496       0.000000

 123/133 kpoint (Cartesian) = 0.916667 1.491488 0.304706 (1296 pws)
 [spin1_state]        1       0.545521       0.013889
 [spin1_state]        2       0.545640       0.013889
 [spin1_state]        3      16.545056       0.000000
 [spin1_state]        4      16.545086       0.000000
 [spin1_state]        5      18.073284       0.000000
 [spin1_state]        6      18.073396       0.000000
 [spin1_state]        7      20.701829       0.000000
 [spin1_state]        8      20.701930       0.000000
 [spin1_state]        9      27.968703       0.000000
 [spin1_state]       10      27.968812       0.000000
 [spin1_state]       11      32.661123       0.000000
 [spin1_state]       12      32.661228       0.000000
 [spin1_state]       13      34.669836       0.000000
 [spin1_state]       14      34.669846       0.000000
 [spin1_state]       15      37.354914       0.000000

 124/133 kpoint (Cartesian) = 0.916667 1.395263 0.304706 (1314 pws)
 [spin1_state]        1       1.769267       0.013889
 [spin1_state]        2       1.769387       0.013889
 [spin1_state]        3      14.031286       0.000000
 [spin1_state]        4      14.031401       0.000000
 [spin1_state]        5      17.871752       0.000000
 [spin1_state]        6      17.871798       0.000000
 [spin1_state]        7      19.737057       0.000000
 [spin1_state]        8      19.737138       0.000000
 [spin1_state]        9      26.707489       0.000000
 [spin1_state]       10      26.707592       0.000000
 [spin1_state]       11      31.122135       0.000000
 [spin1_state]       12      31.122148       0.000000
 [spin1_state]       13      35.267178       0.000000
 [spin1_state]       14      35.267217       0.000000
 [spin1_state]       15      37.380186       0.000000

 125/133 kpoint (Cartesian) = 0.916667 1.299038 0.304706 (1304 pws)
 [spin1_state]        1       3.388619       0.013889
 [spin1_state]        2       3.388741       0.013889
 [spin1_state]        3      10.858095       0.013889
 [spin1_state]        4      10.858210       0.013889
 [spin1_state]        5      17.978119       0.000000
 [spin1_state]        6      17.978215       0.000000
 [spin1_state]        7      20.300972       0.000000
 [spin1_state]        8      20.301000       0.000000
 [spin1_state]        9      25.597174       0.000000
 [spin1_state]       10      25.597260       0.000000
 [spin1_state]       11      28.323651       0.000000
 [spin1_state]       12      28.323677       0.000000
 [spin1_state]       13      34.980921       0.000000
 [spin1_state]       14      34.980927       0.000000
 [spin1_state]       15      40.791899       0.000000

 126/133 kpoint (Cartesian) = 0.916667 1.202813 0.304706 (1312 pws)
 [spin1_state]        1       5.329173       0.013889
 [spin1_state]        2       5.329303       0.013889
 [spin1_state]        3       8.121745       0.013889
 [spin1_state]        4       8.121851       0.013889
 [spin1_state]        5      17.726505       0.000000
 [spin1_state]        6      17.726612       0.000000
 [spin1_state]        7      21.976982       0.000000
 [spin1_state]        8      21.977001       0.000000
 [spin1_state]        9      24.077481       0.000000
 [spin1_state]       10      24.077526       0.000000
 [spin1_state]       11      26.799990       0.000000
 [spin1_state]       12      26.800053       0.000000
 [spin1_state]       13      34.639424       0.000000
 [spin1_state]       14      34.639426       0.000000
 [spin1_state]       15      42.181824       0.000000

 127/133 kpoint (Cartesian) = 0.833333 1.443376 0.304706 (1314 pws)
 [spin1_state]        1       1.565979       0.006944
 [spin1_state]        2       1.566098       0.006944
 [spin1_state]        3      15.859878       0.000000
 [spin1_state]        4      15.860016       0.000000
 [spin1_state]        5      16.331977       0.000000
 [spin1_state]        6      16.332040       0.000000
 [spin1_state]        7      18.921460       0.000000
 [spin1_state]        8      18.921497       0.000000
 [spin1_state]        9      30.900991       0.000000
 [spin1_state]       10      30.901106       0.000000
 [spin1_state]       11      31.169442       0.000000
 [spin1_state]       12      31.169518       0.000000
 [spin1_state]       13      32.760363       0.000000
 [spin1_state]       14      32.760373       0.000000
 [spin1_state]       15      34.888857       0.000000

 128/133 kpoint (Cartesian) = 0.833333 1.347151 0.304706 (1306 pws)
 [spin1_state]        1       2.988054       0.013889
 [spin1_state]        2       2.988175       0.013889
 [spin1_state]        3      12.796119       0.000000
 [spin1_state]        4      12.796241       0.000000
 [spin1_state]        5      15.388286       0.000000
 [spin1_state]        6      15.388385       0.000000
 [spin1_state]        7      19.870672       0.000000
 [spin1_state]        8      19.870687       0.000000
 [spin1_state]        9      29.003875       0.000000
 [spin1_state]       10      29.003914       0.000000
 [spin1_state]       11      30.816795       0.000000
 [spin1_state]       12      30.816861       0.000000
 [spin1_state]       13      32.328980       0.000000
 [spin1_state]       14      32.329012       0.000000
 [spin1_state]       15      36.058062       0.000000

 129/133 kpoint (Cartesian) = 0.833333 1.250926 0.304706 (1314 pws)
 [spin1_state]        1       4.788760       0.013889
 [spin1_state]        2       4.788885       0.013889
 [spin1_state]        3       9.844337       0.013889
 [spin1_state]        4       9.844452       0.013889
 [spin1_state]        5      14.806613       0.000000
 [spin1_state]        6      14.806717       0.000000
 [spin1_state]        7      21.537741       0.000000
 [spin1_state]        8      21.537754       0.000000
 [spin1_state]        9      26.362539       0.000000
 [spin1_state]       10      26.362555       0.000000
 [spin1_state]       11      30.008793       0.000000
 [spin1_state]       12      30.008879       0.000000
 [spin1_state]       13      31.928163       0.000000
 [spin1_state]       14      31.928182       0.000000
 [spin1_state]       15      39.976052       0.000000

 130/133 kpoint (Cartesian) = 0.833333 1.154701 0.304706 (1328 pws)
 [spin1_state]        1       6.465504       0.006944
 [spin1_state]        2       6.465647       0.006944
 [spin1_state]        3       7.775787       0.006944
 [spin1_state]        4       7.775883       0.006944
 [spin1_state]        5      14.609516       0.000000
 [spin1_state]        6      14.609621       0.000000
 [spin1_state]        7      23.153199       0.000000
 [spin1_state]        8      23.153215       0.000000
 [spin1_state]        9      24.385555       0.000000
 [spin1_state]       10      24.385563       0.000000
 [spin1_state]       11      29.770139       0.000000
 [spin1_state]       12      29.770227       0.000000
 [spin1_state]       13      31.750957       0.000000
 [spin1_state]       14      31.750975       0.000000
 [spin1_state]       15      43.979848       0.000000

 131/133 kpoint (Cartesian) = 0.750000 1.299038 0.304706 (1324 pws)
 [spin1_state]        1       4.598772       0.006944
 [spin1_state]        2       4.598895       0.006944
 [spin1_state]        3      11.526066       0.000000
 [spin1_state]        4      11.526204       0.000000
 [spin1_state]        5      12.726545       0.000000
 [spin1_state]        6      12.726628       0.000000
 [spin1_state]        7      21.365628       0.000000
 [spin1_state]        8      21.365640       0.000000
 [spin1_state]        9      28.164196       0.000000
 [spin1_state]       10      28.164207       0.000000
 [spin1_state]       11      29.337589       0.000000
 [spin1_state]       12      29.337596       0.000000
 [spin1_state]       13      34.127241       0.000000
 [spin1_state]       14      34.127363       0.000000
 [spin1_state]       15      35.835955       0.000000

 132/133 kpoint (Cartesian) = 0.750000 1.202813 0.304706 (1318 pws)
 [spin1_state]        1       6.527230       0.013889
 [spin1_state]        2       6.527362       0.013889
 [spin1_state]        3       9.216966       0.013889
 [spin1_state]        4       9.217084       0.013889
 [spin1_state]        5      11.916945       0.000000
 [spin1_state]        6      11.917039       0.000000
 [spin1_state]        7      23.235851       0.000000
 [spin1_state]        8      23.235865       0.000000
 [spin1_state]        9      25.905484       0.000000
 [spin1_state]       10      25.905490       0.000000
 [spin1_state]       11      28.609792       0.000000
 [spin1_state]       12      28.609798       0.000000
 [spin1_state]       13      34.438016       0.000000
 [spin1_state]       14      34.438126       0.000000
 [spin1_state]       15      39.380294       0.000000

 133/133 kpoint (Cartesian) = 0.666667 1.154701 0.304706 (1320 pws)
 [spin1_state]        1       7.971302       0.002315
 [spin1_state]        2       7.971456       0.002315
 [spin1_state]        3       8.882416       0.002315
 [spin1_state]        4       8.882542       0.002315
 [spin1_state]        5      10.208623       0.002315
 [spin1_state]        6      10.208688       0.002315
 [spin1_state]        7      24.628762       0.000000
 [spin1_state]        8      24.628790       0.000000
 [spin1_state]        9      25.589112       0.000000
 [spin1_state]       10      25.589121       0.000000
 [spin1_state]       11      26.991847       0.000000
 [spin1_state]       12      26.991851       0.000000
 [spin1_state]       13      38.378430       0.000000
 [spin1_state]       14      38.378551       0.000000
 [spin1_state]       15      38.513813       0.000000



 --------------------------------------------
 !FINAL_ETOT_IS -115.2373715909233596 eV
 --------------------------------------------






  |CLASS_NAME---------|NAME---------------|TIME(Sec)-----|CALLS----|AVG------|PER%-------
  B              Run_pw     plane_wave_line         85.969         1     85.97     99.99%
  C             Cell_PW        opt_cells_pw          85.82         1     85.82     99.81%
  X                 FFT               FFT3D          63.10    131170      0.00     73.40%
  C            wavefunc             wfcinit           2.80         1      2.80      3.25%
  G           Hamilt_PW      diagH_subspace          14.55       798      0.02     16.93%
  H           Hamilt_PW               h_psi          69.05     48414      0.00     80.31%
  H           Hamilt_PW                vloc          68.58     48414      0.00     79.77%
  C                Ions         opt_ions_pw          82.88         1     82.88     96.40%
  D           Electrons     self_consistent          82.88         1     82.88     96.40%
  E           Electrons             c_bands          44.57         3     14.86     51.85%
  F              Hamilt            diagH_pw          73.48       798      0.09     85.47%
  G            Diago_CG                diag          61.15       798      0.08     71.13%
  E           electrons             c_bands          38.26         3     12.75     44.51%
 ----------------------------------------------------------------------------------------

 CLASS_NAME---------|NAME---------------|MEMORY(MB)--------
                                         49.0865
             wavefunc                 evc        40.4565
         Charge_Pulay                Rrho         1.7798
         Charge_Pulay               dRrho         1.5573
         Charge_Pulay                drho         1.5573
 ----------------------------------------------------------
