 *********************************************************
 *                                                       *
 *                  WELCOME TO ABACUS v3.0               *
 *                                                       *
 *            'Atomic-orbital Based Ab-initio            *
 *                  Computation at UStc'                 *
 *                                                       *
 *          Website: http://abacus.ustc.edu.cn/          *
 *                                                       *
 *********************************************************
 Wed Dec 28 12:30:01 2022
 MAKE THE DIR         : OUT.blpstest/
Notice: symbol 'Li_locpsp' is not an element symbol!!!! set the covalent radius to be 0.
 UNIFORM GRID DIM     : 25 * 25 * 25
 UNIFORM GRID DIM(BIG): 25 * 25 * 25
func,idXC_GGA_X_PBE 101
func,idXC_GGA_C_PBE 130
 DONE(0.0767552  SEC) : SETUP UNITCELL
 DONE(0.128747   SEC) : SYMMETRY
 DONE(0.456741   SEC) : INIT K-POINTS
 ---------------------------------------------------------
 Self-consistent calculations for electrons
 ---------------------------------------------------------
 SPIN    KPOINTS         PROCESSORS  
 1       286             1           
 ---------------------------------------------------------
 Use plane wave basis
 ---------------------------------------------------------
 ELEMENT NATOM       XC          
 Li      1           
 ---------------------------------------------------------
 Initial plane wave basis and FFT box
 ---------------------------------------------------------
 DONE(0.54006    SEC) : INIT PLANEWAVE
 MEMORY FOR PSI (MB)  : 23.2166
 DONE(0.553004   SEC) : LOCAL POTENTIAL
 DONE(0.553042   SEC) : NON-LOCAL POTENTIAL
 DONE(0.553105   SEC) : INIT BASIS
 START CHARGE      : atomic
 DONE(0.588618   SEC) : INIT SCF
 ITER   ETOT(eV)       EDIFF(eV)      DRHO       TIME(s)    
 CG1    -7.325809e+00  0.000000e+00   1.006e-02  1.487e+01  
 CG2    -7.409587e+00  -8.377858e-02  1.106e-03  3.690e+00  
 CG3    -7.410331e+00  -7.443241e-04  1.794e-06  4.737e+00  
 CG4    -7.410366e+00  -3.497646e-05  8.430e-07  8.054e+00  
 CG5    -7.410369e+00  -2.192584e-06  1.722e-07  4.650e+00  
 CG6    -7.410369e+00  -9.584173e-08  2.865e-09  4.049e+00  
 CG7    -7.410369e+00  -5.903856e-09  1.414e-10  5.562e+00  

  |CLASS_NAME---------|NAME---------------|TIME(Sec)-----|CALLS----|AVG------|PER%-------
                       total               46.224         17        2.7       1e+02     %
   Driver              driver_line         46.216         1         46        1e+02     %
   ESolver_KS_PW       Run                 45.66          1         46        99        %
   Potential           update_from_charge  0.15781        8         0.02      0.34      %
   Potential           cal_v_eff           0.15699        8         0.02      0.34      %
   PotXC               cal_v_eff           0.14506        8         0.018     0.31      %
   XC_Functional       v_xc                29.821         4         7.5       65        %
   XC_Functional       v_xc_libxc          0.14471        8         0.018     0.31      %
   HSolverPW           solve               45.442         8         5.7       98        %
   DiagoIterAssist     diagH_subspace      8.6239         2002      0.0043    19        %
   OperatorPW          hPsi                41.544         43365     0.00096   90        %
   Operator            EkineticPW          0.2236         43365     5.2e-06   0.48      %
   Operator            VeffPW              41.127         43365     0.00095   89        %
   PW_Basis_K          recip2real          20.887         52651     0.0004    45        %
   PW_Basis_K          gathers_scatterp    1.8454         52651     3.5e-05   4         %
   PW_Basis_K          real2recip          18.9           51373     0.00037   41        %
   PW_Basis_K          gatherp_scatters    0.55119        51373     1.1e-05   1.2       %
   DiagoIterAssist     LAPACK_subspace     0.10395        2002      5.2e-05   0.22      %
   DiagoCG             diag_once           35.641         2288      0.016     77        %
   ElecStatePW         psiToRho            0.5811         8         0.073     1.3       %
 ----------------------------------------------------------------------------------------

 START  Time  : Wed Dec 28 12:30:01 2022
 FINISH Time  : Wed Dec 28 12:30:48 2022
 TOTAL  Time  : 47
 SEE INFORMATION IN : OUT.blpstest/
