 *********************************************************
 *                                                       *
 *                  WELCOME TO ABACUS v3.0               *
 *                                                       *
 *            'Atomic-orbital Based Ab-initio            *
 *                  Computation at UStc'                 *
 *                                                       *
 *          Website: http://abacus.ustc.edu.cn/          *
 *                                                       *
 *********************************************************
 Wed Dec 28 12:34:33 2022
 MAKE THE DIR         : OUT.blpstest/
Notice: symbol 'Li_locpsp' is not an element symbol!!!! set the covalent radius to be 0.
 UNIFORM GRID DIM     : 40 * 40 * 40
 UNIFORM GRID DIM(BIG): 40 * 40 * 40
func,idXC_GGA_X_PBE 101
func,idXC_GGA_C_PBE 130
 DONE(0.258415   SEC) : SETUP UNITCELL
 DONE(0.31983    SEC) : SYMMETRY
 DONE(0.711143   SEC) : INIT K-POINTS
 ---------------------------------------------------------
 Self-consistent calculations for electrons
 ---------------------------------------------------------
 SPIN    KPOINTS         PROCESSORS  
 1       256             1           
 ---------------------------------------------------------
 Use plane wave basis
 ---------------------------------------------------------
 ELEMENT NATOM       XC          
 Li      2           
 ---------------------------------------------------------
 Initial plane wave basis and FFT box
 ---------------------------------------------------------
 DONE(0.885488   SEC) : INIT PLANEWAVE
 MEMORY FOR PSI (MB)  : 47.2852
 DONE(0.924268   SEC) : LOCAL POTENTIAL
 DONE(0.924546   SEC) : NON-LOCAL POTENTIAL
 DONE(0.924971   SEC) : INIT BASIS
 START CHARGE      : atomic
 DONE(1.07406    SEC) : INIT SCF
 ITER   ETOT(eV)       EDIFF(eV)      DRHO       TIME(s)    
 CG1    -1.385503e+01  0.000000e+00   1.786e-02  4.776e+01  
 CG2    -1.403631e+01  -1.812821e-01  1.970e-03  7.830e+00  
 CG3    -1.403832e+01  -2.007474e-03  2.237e-05  9.216e+00  
 CG4    -1.403845e+01  -1.335298e-04  1.288e-05  1.478e+01  
 CG5    -1.403846e+01  -4.544695e-06  6.459e-06  7.840e+00  
 CG6    -1.403846e+01  -1.402670e-07  2.594e-07  7.922e+00  
 CG7    -1.403846e+01  4.112672e-08   7.994e-08  1.006e+01  
 CG8    -1.403846e+01  -5.781078e-09  1.453e-09  8.069e+00  
 CG9    -1.403846e+01  5.741849e-11   8.955e-10  1.118e+01  

  |CLASS_NAME---------|NAME---------------|TIME(Sec)-----|CALLS----|AVG------|PER%-------
                       total               125.74         17        7.4       1e+02     %
   Driver              driver_line         125.73         1         1.3e+02   1e+02     %
   PW_Basis            setuptransform      0.23288        1         0.23      0.19      %
   PW_Basis_K          setuptransform      0.12707        1         0.13      0.1       %
   ESolver_KS_PW       Run                 124.81         1         1.2e+02   99        %
   PW_Basis            recip2real          0.10086        62        0.0016    0.08      %
   Potential           init_pot            0.10926        1         0.11      0.087     %
   Potential           update_from_charge  0.567          10        0.057     0.45      %
   Potential           cal_v_eff           0.56311        10        0.056     0.45      %
   PW_Basis            real2recip          0.13534        100       0.0014    0.11      %
   PotXC               cal_v_eff           0.52042        10        0.052     0.41      %
   XC_Functional       v_xc                86.119         5         17        68        %
   XC_Functional       v_xc_libxc          0.51663        10        0.052     0.41      %
   HSolverPW           solve               124.1          10        12        99        %
   DiagoIterAssist     diagH_subspace      24.179         2304      0.01      19        %
   OperatorPW          hPsi                115.5          44474     0.0026    92        %
   Operator            EkineticPW          0.32306        44474     7.3e-06   0.26      %
   Operator            VeffPW              114.99         44474     0.0026    91        %
   PW_Basis_K          recip2real          61.882         56649     0.0011    49        %
   PW_Basis_K          gathers_scatterp    5.2821         56649     9.3e-05   4.2       %
   PW_Basis_K          real2recip          48.748         53690     0.00091   39        %
   PW_Basis_K          gatherp_scatters    0.99432        53690     1.9e-05   0.79      %
   DiagoCG             diag_once           95.778         2560      0.037     76        %
   ElecStatePW         psiToRho            3.217          10        0.32      2.6       %
 ----------------------------------------------------------------------------------------

 START  Time  : Wed Dec 28 12:34:33 2022
 FINISH Time  : Wed Dec 28 12:36:39 2022
 TOTAL  Time  : 1.3e+02
 SEE INFORMATION IN : OUT.blpstest/
