 *********************************************************
 *                                                       *
 *                  WELCOME TO ABACUS v3.0               *
 *                                                       *
 *            'Atomic-orbital Based Ab-initio            *
 *                  Computation at UStc'                 *
 *                                                       *
 *          Website: http://abacus.ustc.edu.cn/          *
 *                                                       *
 *********************************************************
 Mon Jul 24 14:14:39 2023
 MAKE THE DIR         : OUT.blpstest/
Notice: symbol 'In_locpsp' is not an element symbol!!!! set the covalent radius to be 0.
Notice: symbol 'P_locpsp' is not an element symbol!!!! set the covalent radius to be 0.
 UNIFORM GRID DIM     : 40 * 40 * 40
 UNIFORM GRID DIM(BIG): 40 * 40 * 40
func,idXC_GGA_X_PBE 101
func,idXC_GGA_C_PBE 130
 DONE(0.742716   SEC) : SETUP UNITCELL
 DONE(0.861001   SEC) : SYMMETRY
 DONE(1.32062    SEC) : INIT K-POINTS
 ---------------------------------------------------------
 Self-consistent calculations for electrons
 ---------------------------------------------------------
 SPIN    KPOINTS         PROCESSORS  
 1       256             1           
 ---------------------------------------------------------
 Use plane wave basis
 ---------------------------------------------------------
 ELEMENT NATOM       XC          
 In      1           
 P       1           
 ---------------------------------------------------------
 Initial plane wave basis and FFT box
 ---------------------------------------------------------
 DONE(1.59518    SEC) : INIT PLANEWAVE
 MEMORY FOR PSI (MB)  : 105.328
 DONE(1.70141    SEC) : LOCAL POTENTIAL
 DONE(1.70155    SEC) : NON-LOCAL POTENTIAL
 DONE(1.70174    SEC) : INIT BASIS
 START CHARGE      : atomic
 DONE(2.09417    SEC) : INIT SCF
 ITER   ETOT(eV)       EDIFF(eV)      DRHO       TIME(s)    
 CG1    -2.180899e+02  0.000000e+00   4.814e+00  3.277e+02  
 CG2    -2.333594e+02  -1.526953e+01  8.427e-01  1.518e+02  
 CG3    -2.360235e+02  -2.664155e+00  2.386e-02  1.109e+02  
 CG4    -2.360644e+02  -4.084204e-02  8.232e-04  1.374e+02  
 CG5    -2.360700e+02  -5.613328e-03  3.861e-05  1.224e+02  
 CG6    -2.360701e+02  -1.417531e-04  5.760e-06  8.915e+01  
 CG7    -2.360702e+02  -1.346618e-05  3.023e-08  3.553e+01  
 CG8    -2.360702e+02  -7.083552e-07  2.414e-08  5.477e+01  
 CG9    -2.360702e+02  -2.520425e-08  1.607e-09  3.804e+01  
 CG10   -2.360702e+02  -6.367453e-09  4.763e-12  7.794e+01  

  |CLASS_NAME---------|NAME---------------|TIME(Sec)-----|CALLS----|AVG------|PER%-------
                       total               1147.8         17        68        1e+02     %
   Driver              driver_line         1147.7         1         1.1e+03   1e+02     %
   PW_Basis            setuptransform      0.66569        1         0.67      0.058     %
   PW_Basis_K          setuptransform      0.18937        1         0.19      0.016     %
   ESolver_KS_PW       Run                 1146           1         1.1e+03   1e+02     %
   PW_Basis            recip2real          0.36674        68        0.0054    0.032     %
   Potential           init_pot            0.28092        1         0.28      0.024     %
   Potential           update_from_charge  2.1656         11        0.2       0.19      %
   Potential           cal_v_eff           2.1567         11        0.2       0.19      %
   H_Hartree_pw        v_hartree           0.20259        11        0.018     0.018     %
   PW_Basis            real2recip          0.71794        108       0.0066    0.063     %
   PotXC               cal_v_eff           1.9407         11        0.18      0.17      %
   XC_Functional       v_xc                634.69         6         1.1e+02   55        %
   XC_Functional       v_xc_libxc          1.9156         11        0.17      0.17      %
   HSolverPW           solve               1143.1         10        1.1e+02   1e+02     %
   WF_atomic           atomic_wfc          0.13861        256       0.00054   0.012     %
   DiagoIterAssist     diagH_subspace      216.05         2560      0.084     19        %
   OperatorPW          hPsi                1030.9         86395     0.012     90        %
   Operator            EkineticPW          5.4436         86395     6.3e-05   0.47      %
   Operator            VeffPW              1023.1         86395     0.012     89        %
   PW_Basis_K          recip2real          468.21         117116    0.004     41        %
   PW_Basis_K          gathers_scatterp    74.327         117116    0.00063   6.5       %
   PW_Basis_K          real2recip          466.69         106875    0.0044    41        %
   PW_Basis_K          gatherp_scatters    22.284         106875    0.00021   1.9       %
   Operator            NonlocalPW          0.25804        86395     3e-06     0.022     %
   DiagoIterAssist     LAPACK_subspace     0.74683        2560      0.00029   0.065     %
   DiagoCG             diag_once           876.86         2560      0.34      76        %
   ElecStatePW         psiToRho            46.843         10        4.7       4.1       %
   Charge              mix_rho             0.30403        9         0.034     0.026     %
 ----------------------------------------------------------------------------------------

 START  Time  : Mon Jul 24 14:14:39 2023
 FINISH Time  : Mon Jul 24 14:33:47 2023
 TOTAL  Time  : 1.1e+03
 SEE INFORMATION IN : OUT.blpstest/
