 *********************************************************
 *                                                       *
 *                  WELCOME TO ABACUS v3.0               *
 *                                                       *
 *            'Atomic-orbital Based Ab-initio            *
 *                  Computation at UStc'                 *
 *                                                       *
 *          Website: http://abacus.ustc.edu.cn/          *
 *                                                       *
 *********************************************************
 Tue May  2 12:50:04 2023
 MAKE THE DIR         : OUT.blpstest/
Notice: symbol 'mg_locpsp' is not an element symbol!!!! set the covalent radius to be 0.
 UNIFORM GRID DIM     : 30 * 30 * 30
 UNIFORM GRID DIM(BIG): 30 * 30 * 30
func,idXC_GGA_X_PBE 101
func,idXC_GGA_C_PBE 130
 DONE(0.159977   SEC) : SETUP UNITCELL
 DONE(0.215581   SEC) : SYMMETRY
 DONE(0.215814   SEC) : INIT K-POINTS
 ---------------------------------------------------------
 Self-consistent calculations for electrons
 ---------------------------------------------------------
 SPIN    KPOINTS         PROCESSORS  
 1       1               1           
 ---------------------------------------------------------
 Use plane wave basis
 ---------------------------------------------------------
 ELEMENT NATOM       XC          
 Mg      1           
 ---------------------------------------------------------
 Initial plane wave basis and FFT box
 ---------------------------------------------------------
 DONE(0.21735    SEC) : INIT BASIS
 DONE(0.217375   SEC) : INIT PHI
 DONE(0.267991   SEC) : LOCAL POTENTIAL
 DONE(0.268023   SEC) : NON-LOCAL POTENTIAL
 START CHARGE      : atomic
 DONE(0.362649   SEC) : INIT POTENTIAL
 DONE(0.362763   SEC) : INIT OPTIMIZATION
Default type: double
 DONE(0.364426   SEC) : INIT KEDF
======================== Running OFDFT ========================
Iter        Etot(Ha)          Theta      PotNorm     deltaE(Ha)
0     -8.400928630464e-01   2.000e-01   1.203e-01   -8.401e-01  
1     -8.401108887237e-01   2.203e-03   1.208e-01   -1.803e-05  
2     -8.872724130726e-01   1.061e-01   7.287e-02   -4.716e-02  
3     -8.889308536783e-01   1.386e-02   9.116e-03   -1.658e-03  
4     -8.889591155853e-01   2.284e-03   4.878e-03   -2.826e-05  
5     -8.889658478351e-01   1.336e-03   3.099e-04   -6.732e-06  
6     -8.889658675020e-01   3.752e-05   4.100e-05   -1.967e-08  
7     -8.889658679948e-01   6.563e-06   2.392e-05   -4.928e-10  

  |CLASS_NAME---------|NAME---------------|TIME(Sec)-----|CALLS----|AVG------|PER%-------
                       total               22.918         21        1.1       1e+02     %
   Driver              driver_line         22.893         1         23        1e+02     %
   PW_Basis            setuptransform      0.12197        1         0.12      0.53      %
   PW_Basis            recip2real          4.7903         2192      0.0022    21        %
   PW_Basis            gathers_scatterp    0.6994         2192      0.00032   3.1       %
   Potential           update_from_charge  13.601         169       0.08      59        %
   Potential           cal_v_eff           13.597         169       0.08      59        %
   H_Hartree_pw        v_hartree           1.2276         169       0.0073    5.4       %
   PW_Basis            real2recip          5.6898         2192      0.0026    25        %
   PW_Basis            gatherp_scatters    0.63646        2192      0.00029   2.8       %
   PotXC               cal_v_eff           12.284         169       0.073     54        %
   XC_Functional       v_xc                11.235         85        0.13      49        %
   XC_Functional       v_xc_libxc          12.1           169       0.072     53        %
   ESolver_OF          Run                 22.55          1         23        98        %
   KEDF_LKT            LKT_potential       7.2443         168       0.043     32        %
   KEDF_vW             vw_potential        1.0931         168       0.0065    4.8       %
 ----------------------------------------------------------------------------------------

 START  Time  : Tue May  2 12:50:04 2023
 FINISH Time  : Tue May  2 12:50:27 2023
 TOTAL  Time  : 23
 SEE INFORMATION IN : OUT.blpstest/
