 *********************************************************
 *                                                       *
 *                  WELCOME TO ABACUS v3.0               *
 *                                                       *
 *            'Atomic-orbital Based Ab-initio            *
 *                  Computation at UStc'                 *
 *                                                       *
 *          Website: http://abacus.ustc.edu.cn/          *
 *                                                       *
 *********************************************************
 Mon Jul 24 15:06:11 2023
 MAKE THE DIR         : OUT.blpstest/
Notice: symbol 'In_locpsp' is not an element symbol!!!! set the covalent radius to be 0.
Notice: symbol 'As_locpsp' is not an element symbol!!!! set the covalent radius to be 0.
 UNIFORM GRID DIM     : 36 * 36 * 36
 UNIFORM GRID DIM(BIG): 36 * 36 * 36
func,idXC_GGA_X_PBE 101
func,idXC_GGA_C_PBE 130
 DONE(0.190182   SEC) : SETUP UNITCELL
 DONE(0.221891   SEC) : SYMMETRY
 DONE(0.393473   SEC) : INIT K-POINTS
 ---------------------------------------------------------
 Self-consistent calculations for electrons
 ---------------------------------------------------------
 SPIN    KPOINTS         PROCESSORS  
 1       256             1           
 ---------------------------------------------------------
 Use plane wave basis
 ---------------------------------------------------------
 ELEMENT NATOM       XC          
 In      1           
 As      1           
 ---------------------------------------------------------
 Initial plane wave basis and FFT box
 ---------------------------------------------------------
 DONE(0.49216    SEC) : INIT PLANEWAVE
 MEMORY FOR PSI (MB)  : 73.3008
 DONE(0.528988   SEC) : LOCAL POTENTIAL
 DONE(0.529023   SEC) : NON-LOCAL POTENTIAL
 DONE(0.529082   SEC) : INIT BASIS
 START CHARGE      : atomic
 DONE(0.59877    SEC) : INIT SCF
 ITER   ETOT(eV)       EDIFF(eV)      DRHO       TIME(s)    
 CG1    -2.176236e+02  0.000000e+00   2.224e+00  3.307e+01  
 CG2    -2.231185e+02  -5.494855e+00  1.031e-01  1.523e+01  
 CG3    -2.234274e+02  -3.089034e-01  4.588e-03  1.462e+01  
 CG4    -2.234354e+02  -7.960492e-03  1.568e-04  5.281e+01  
 CG5    -2.234360e+02  -6.802869e-04  4.168e-06  5.949e+01  
 CG6    -2.234361e+02  -1.044241e-05  1.015e-07  6.299e+01  
 CG7    -2.234361e+02  -5.907261e-07  1.082e-08  6.482e+01  
 CG8    -2.234361e+02  -3.642460e-08  1.726e-09  5.625e+01  
 CG9    -2.234361e+02  -3.089614e-09  1.270e-11  4.651e+01  

  |CLASS_NAME---------|NAME---------------|TIME(Sec)-----|CALLS----|AVG------|PER%-------
                       total               406.46         17        24        1e+02     %
   Driver              driver_line         406.45         1         4.1e+02   1e+02     %
   PW_Basis            setuptransform      0.16794        1         0.17      0.041     %
   ESolver_KS_PW       Run                 405.89         1         4.1e+02   1e+02     %
   PW_Basis            recip2real          0.15223        62        0.0025    0.037     %
   Potential           update_from_charge  0.8667         10        0.087     0.21      %
   Potential           cal_v_eff           0.86544        10        0.087     0.21      %
   PW_Basis            real2recip          0.28694        98        0.0029    0.071     %
   PotXC               cal_v_eff           0.79117        10        0.079     0.19      %
   XC_Functional       v_xc                218.49         5         44        54        %
   XC_Functional       v_xc_libxc          0.78294        10        0.078     0.19      %
   HSolverPW           solve               404.74         9         45        1e+02     %
   DiagoIterAssist     diagH_subspace      80.79          2304      0.035     20        %
   OperatorPW          hPsi                363.07         79114     0.0046    89        %
   Operator            EkineticPW          1.7099         79114     2.2e-05   0.42      %
   Operator            VeffPW              360.5          79114     0.0046    89        %
   PW_Basis_K          recip2real          197.26         106762    0.0018    49        %
   PW_Basis_K          gathers_scatterp    20.474         106762    0.00019   5         %
   PW_Basis_K          real2recip          144.7          97546     0.0015    36        %
   PW_Basis_K          gatherp_scatters    6.4789         97546     6.6e-05   1.6       %
   Operator            NonlocalPW          0.11618        79114     1.5e-06   0.029     %
   DiagoIterAssist     LAPACK_subspace     0.41249        2304      0.00018   0.1       %
   DiagoCG             diag_once           302.12         2304      0.13      74        %
   ElecStatePW         psiToRho            20.784         9         2.3       5.1       %
   Charge              mix_rho             0.11557        8         0.014     0.028     %
 ----------------------------------------------------------------------------------------

 START  Time  : Mon Jul 24 15:06:11 2023
 FINISH Time  : Mon Jul 24 15:12:57 2023
 TOTAL  Time  : 4.1e+02
 SEE INFORMATION IN : OUT.blpstest/
