 *********************************************************
 *                                                       *
 *                  WELCOME TO ABACUS v3.0               *
 *                                                       *
 *            'Atomic-orbital Based Ab-initio            *
 *                  Computation at UStc'                 *
 *                                                       *
 *          Website: http://abacus.ustc.edu.cn/          *
 *                                                       *
 *********************************************************
 Mon Apr 17 14:53:45 2023
 MAKE THE DIR         : OUT.blpstest/
Notice: symbol 'Li_locpsp' is not an element symbol!!!! set the covalent radius to be 0.
 UNIFORM GRID DIM     : 25 * 25 * 25
 UNIFORM GRID DIM(BIG): 25 * 25 * 25
func,idXC_GGA_X_PBE 101
func,idXC_GGA_C_PBE 130
 DONE(0.090552   SEC) : SETUP UNITCELL
 DONE(0.144598   SEC) : SYMMETRY
 DONE(0.485038   SEC) : INIT K-POINTS
 ---------------------------------------------------------
 Self-consistent calculations for electrons
 ---------------------------------------------------------
 SPIN    KPOINTS         PROCESSORS  
 1       256             1           
 ---------------------------------------------------------
 Use plane wave basis
 ---------------------------------------------------------
 ELEMENT NATOM       XC          
 Li      1           
 ---------------------------------------------------------
 Initial plane wave basis and FFT box
 ---------------------------------------------------------
 DONE(0.485803   SEC) : INIT BASIS
 DONE(0.485828   SEC) : INIT PHI
 DONE(0.520192   SEC) : LOCAL POTENTIAL
 DONE(0.520229   SEC) : NON-LOCAL POTENTIAL
 START CHARGE      : atomic
 DONE(0.577868   SEC) : INIT POTENTIAL
 DONE(0.577914   SEC) : INIT OPTIMIZATION
 DONE(0.578559   SEC) : INIT KEDF
======================== Running OFDFT ========================
Iter        Etot(Ha)          Theta      PotNorm     deltaE(Ha)
0     -2.636863235266e-01   2.000e-01   8.855e-02   -2.637e-01  
1     -2.753137565341e-01   6.994e-02   6.485e-02   -1.163e-02  
2     -2.762026213274e-01   1.831e-02   2.085e-02   -8.889e-04  
3     -2.763352234216e-01   9.442e-03   1.914e-03   -1.326e-04  
4     -2.763357889176e-01   2.555e-04   1.006e-03   -5.655e-07  
5     -2.763359368626e-01   1.921e-04   1.053e-04   -1.479e-07  

  |CLASS_NAME---------|NAME---------------|TIME(Sec)-----|CALLS----|AVG------|PER%-------
                       total               6.6805         21        0.32      1e+02     %
   Driver              driver_line         6.6701         1         6.7       1e+02     %
   PW_Basis            recip2real          0.87682        1295      0.00068   13        %
   Potential           update_from_charge  3.5678         144       0.025     53        %
   Potential           cal_v_eff           3.5666         144       0.025     53        %
   H_Hartree_pw        v_hartree           0.27099        144       0.0019    4.1       %
   PW_Basis            real2recip          1.2102         1581      0.00077   18        %
   PW_Basis            gatherp_scatters    0.11437        1581      7.2e-05   1.7       %
   PotXC               cal_v_eff           3.2696         144       0.023     49        %
   XC_Functional       v_xc                3.0508         72        0.042     46        %
   XC_Functional       v_xc_libxc          3.2563         144       0.023     49        %
   ESolver_OF          Run                 6.1008         1         6.1       91        %
   KEDF_TF             tf_potential        0.46723        143       0.0033    7         %
   KEDF_WT             wt_potential        1.6541         143       0.012     25        %
   KEDF_vW             vw_potential        0.27396        143       0.0019    4.1       %
 ----------------------------------------------------------------------------------------

 START  Time  : Mon Apr 17 14:53:45 2023
 FINISH Time  : Mon Apr 17 14:53:51 2023
 TOTAL  Time  : 6
 SEE INFORMATION IN : OUT.blpstest/
