 *********************************************************
 *                                                       *
 *                  WELCOME TO ABACUS v3.0               *
 *                                                       *
 *            'Atomic-orbital Based Ab-initio            *
 *                  Computation at UStc'                 *
 *                                                       *
 *          Website: http://abacus.ustc.edu.cn/          *
 *                                                       *
 *********************************************************
 Wed Dec 28 12:30:01 2022
 MAKE THE DIR         : OUT.blpstest/
Notice: symbol 'Li_locpsp' is not an element symbol!!!! set the covalent radius to be 0.
 UNIFORM GRID DIM     : 30 * 30 * 30
 UNIFORM GRID DIM(BIG): 30 * 30 * 30
func,idXC_GGA_X_PBE 101
func,idXC_GGA_C_PBE 130
 DONE(0.128396   SEC) : SETUP UNITCELL
 DONE(0.180511   SEC) : SYMMETRY
 DONE(0.517068   SEC) : INIT K-POINTS
 ---------------------------------------------------------
 Self-consistent calculations for electrons
 ---------------------------------------------------------
 SPIN    KPOINTS         PROCESSORS  
 1       256             1           
 ---------------------------------------------------------
 Use plane wave basis
 ---------------------------------------------------------
 ELEMENT NATOM       XC          
 Li      1           
 ---------------------------------------------------------
 Initial plane wave basis and FFT box
 ---------------------------------------------------------
 DONE(0.627775   SEC) : INIT PLANEWAVE
 MEMORY FOR PSI (MB)  : 22.3438
 DONE(0.641099   SEC) : LOCAL POTENTIAL
 DONE(0.641144   SEC) : NON-LOCAL POTENTIAL
 DONE(0.641221   SEC) : INIT BASIS
 START CHARGE      : atomic
 DONE(0.694542   SEC) : INIT SCF
 ITER   ETOT(eV)       EDIFF(eV)      DRHO       TIME(s)    
 CG1    -7.452853e+00  0.000000e+00   9.703e-03  2.776e+01  
 CG2    -7.538896e+00  -8.604281e-02  1.092e-03  7.034e+00  
 CG3    -7.539326e+00  -4.306857e-04  5.179e-08  8.587e+00  
 CG4    -7.539345e+00  -1.862670e-05  3.076e-08  2.071e+01  
 CG5    -7.539346e+00  -5.492210e-07  1.711e-09  5.977e+00  
 CG6    -7.539346e+00  -7.353567e-09  3.207e-11  5.508e+00  

  |CLASS_NAME---------|NAME---------------|TIME(Sec)-----|CALLS----|AVG------|PER%-------
                       total               76.276         17        4.5       1e+02     %
   Driver              driver_line         76.266         1         76        1e+02     %
   PW_Basis            setuptransform      0.11062        1         0.11      0.15      %
   ESolver_KS_PW       Run                 75.629         1         76        99        %
   Potential           update_from_charge  0.22516        7         0.032     0.3       %
   Potential           cal_v_eff           0.22364        7         0.032     0.29      %
   PotXC               cal_v_eff           0.20574        7         0.029     0.27      %
   XC_Functional       v_xc                42.326         4         11        55        %
   XC_Functional       v_xc_libxc          0.20517        7         0.029     0.27      %
   HSolverPW           solve               75.327         7         11        99        %
   DiagoIterAssist     diagH_subspace      12.01          1536      0.0078    16        %
   OperatorPW          hPsi                70.755         38380     0.0018    93        %
   Operator            EkineticPW          0.22715        38380     5.9e-06   0.3       %
   Operator            VeffPW              70.33          38380     0.0018    92        %
   PW_Basis_K          recip2real          35.358         45517     0.00078   46        %
   PW_Basis_K          gathers_scatterp    2.6409         45517     5.8e-05   3.5       %
   PW_Basis_K          real2recip          31.872         44524     0.00072   42        %
   PW_Basis_K          gatherp_scatters    0.88552        44524     2e-05     1.2       %
   DiagoCG             diag_once           61.769         1792      0.034     81        %
   ElecStatePW         psiToRho            0.80154        7         0.11      1.1       %
 ----------------------------------------------------------------------------------------

 START  Time  : Wed Dec 28 12:30:01 2022
 FINISH Time  : Wed Dec 28 12:31:17 2022
 TOTAL  Time  : 76
 SEE INFORMATION IN : OUT.blpstest/
