 *********************************************************
 *                                                       *
 *                  WELCOME TO ABACUS v3.0               *
 *                                                       *
 *            'Atomic-orbital Based Ab-initio            *
 *                  Computation at UStc'                 *
 *                                                       *
 *          Website: http://abacus.ustc.edu.cn/          *
 *                                                       *
 *********************************************************
 Tue May  2 12:50:59 2023
 MAKE THE DIR         : OUT.blpstest/
Notice: symbol 'mg_locpsp' is not an element symbol!!!! set the covalent radius to be 0.
 UNIFORM GRID DIM     : 32 * 32 * 50
 UNIFORM GRID DIM(BIG): 32 * 32 * 50
func,idXC_GGA_X_PBE 101
func,idXC_GGA_C_PBE 130
 DONE(0.217188   SEC) : SETUP UNITCELL
 DONE(0.272419   SEC) : SYMMETRY
 DONE(0.272629   SEC) : INIT K-POINTS
 ---------------------------------------------------------
 Self-consistent calculations for electrons
 ---------------------------------------------------------
 SPIN    KPOINTS         PROCESSORS  
 1       1               1           
 ---------------------------------------------------------
 Use plane wave basis
 ---------------------------------------------------------
 ELEMENT NATOM       XC          
 Mg      2           
 ---------------------------------------------------------
 Initial plane wave basis and FFT box
 ---------------------------------------------------------
 DONE(0.280804   SEC) : INIT BASIS
 DONE(0.280832   SEC) : INIT PHI
 DONE(0.5995     SEC) : LOCAL POTENTIAL
 DONE(0.599545   SEC) : NON-LOCAL POTENTIAL
 START CHARGE      : atomic
 DONE(1.09505    SEC) : INIT POTENTIAL
 DONE(1.09585    SEC) : INIT OPTIMIZATION
Default type: double
 DONE(1.10013    SEC) : INIT KEDF
======================== Running OFDFT ========================
Iter        Etot(Ha)          Theta      PotNorm     deltaE(Ha)
0     -1.695276008209e+00   2.000e-01   1.066e-01   -1.695e+00  
1     -1.777701434752e+00   1.025e-01   1.026e-01   -8.243e-02  
2     -1.781021901591e+00   7.253e-03   3.375e-02   -3.320e-03  
3     -1.781787188068e+00   7.521e-03   1.588e-02   -7.653e-04  
4     -1.781881459402e+00   2.012e-03   6.422e-03   -9.427e-05  
5     -1.781905947124e+00   1.866e-03   8.638e-04   -2.449e-05  
6     -1.781906793871e+00   3.081e-04   3.964e-04   -8.467e-07  
7     -1.781906925988e+00   1.571e-04   3.049e-05   -1.321e-07  

  |CLASS_NAME---------|NAME---------------|TIME(Sec)-----|CALLS----|AVG------|PER%-------
                       total               41.363         21        2         1e+02     %
   Driver              driver_line         41.352         1         41        1e+02     %
   PW_Basis            setuptransform      0.18582        1         0.19      0.45      %
   ppcell_vl           init_vloc           0.31843        1         0.32      0.77      %
   Charge              atomic_rho          0.34272        1         0.34      0.83      %
   PW_Basis            recip2real          9.094          2192      0.0041    22        %
   PW_Basis            gathers_scatterp    1.9292         2192      0.00088   4.7       %
   Potential           init_pot            0.14827        1         0.15      0.36      %
   Potential           update_from_charge  24.666         169       0.15      60        %
   Potential           cal_v_eff           24.66          169       0.15      60        %
   H_Hartree_pw        v_hartree           2.1439         169       0.013     5.2       %
   PW_Basis            real2recip          8.8749         2192      0.004     21        %
   PW_Basis            gatherp_scatters    1.2674         2192      0.00058   3.1       %
   PotXC               cal_v_eff           22.355         169       0.13      54        %
   XC_Functional       v_xc                20.152         85        0.24      49        %
   XC_Functional       v_xc_libxc          22.045         169       0.13      53        %
   ESolver_OF          Run                 40.26          1         40        97        %
   KEDF_LKT            LKT_potential       12.586         168       0.075     30        %
   KEDF_vW             vw_potential        1.8816         168       0.011     4.5       %
 ----------------------------------------------------------------------------------------

 START  Time  : Tue May  2 12:50:59 2023
 FINISH Time  : Tue May  2 12:51:40 2023
 TOTAL  Time  : 41
 SEE INFORMATION IN : OUT.blpstest/
