 *********************************************************
 *                                                       *
 *                  WELCOME TO ABACUS v3.0               *
 *                                                       *
 *            'Atomic-orbital Based Ab-initio            *
 *                  Computation at UStc'                 *
 *                                                       *
 *          Website: http://abacus.ustc.edu.cn/          *
 *                                                       *
 *********************************************************
 Wed Apr 26 05:34:56 2023
 MAKE THE DIR         : OUT.oftest/
Notice: symbol 'mg_locpsp' is not an element symbol!!!! set the covalent radius to be 0.
 UNIFORM GRID DIM     : 25 * 25 * 25
 UNIFORM GRID DIM(BIG): 25 * 25 * 25
func,idXC_GGA_X_PBE 101
func,idXC_GGA_C_PBE 130
 DONE(0.0881491  SEC) : SETUP UNITCELL
 DONE(0.148347   SEC) : SYMMETRY
 DONE(0.148734   SEC) : INIT K-POINTS
 ---------------------------------------------------------
 Self-consistent calculations for electrons
 ---------------------------------------------------------
 SPIN    KPOINTS         PROCESSORS  
 1       1               1           
 ---------------------------------------------------------
 Use plane wave basis
 ---------------------------------------------------------
 ELEMENT NATOM       XC          
 Mg      1           
 ---------------------------------------------------------
 Initial plane wave basis and FFT box
 ---------------------------------------------------------
 DONE(0.149843   SEC) : INIT BASIS
 DONE(0.149866   SEC) : INIT PHI
 DONE(0.174369   SEC) : LOCAL POTENTIAL
 DONE(0.174416   SEC) : NON-LOCAL POTENTIAL
 START CHARGE      : atomic
 DONE(0.225028   SEC) : INIT POTENTIAL
 DONE(0.225077   SEC) : INIT OPTIMIZATION
Default type: double
nnode = 10
nlayer = 3
feg_net_F = 0.540933
 DONE(0.298869   SEC) : INIT KEDF
======================== Running OFDFT ========================
Iter        Etot(Ha)          Theta      PotNorm     deltaE(Ha)
0     -8.003305499074e-01   2.000e-01   1.435e-01   -8.003e-01  
1     -8.593082307090e-01   1.162e-01   6.566e-02   -5.898e-02  
2     -8.602596928933e-01   1.074e-02   6.539e-03   -9.515e-04  
3     -8.602732633703e-01   1.534e-03   3.154e-03   -1.357e-05  
4     -8.602761015179e-01   6.794e-04   1.563e-03   -2.838e-06  
5     -8.602770675793e-01   3.979e-04   9.865e-04   -9.661e-07  
6     -8.602776623442e-01   5.443e-04   6.594e-05   -5.948e-07  
7     -8.602776631297e-01   7.531e-06   7.212e-06   -7.856e-10  

  |CLASS_NAME---------|NAME---------------|TIME(Sec)-----|CALLS----|AVG------|PER%-------
                       total               92.459         21        4.4       1e+02     %
   Driver              driver_line         92.452         1         92        1e+02     %
   PW_Basis            recip2real          1.7817         2808      0.00063   1.9       %
   PW_Basis            gathers_scatterp    0.14634        2808      5.2e-05   0.16      %
   Potential           update_from_charge  2.7593         141       0.02      3         %
   Potential           cal_v_eff           2.758          141       0.02      3         %
   H_Hartree_pw        v_hartree           0.21123        141       0.0015    0.23      %
   PW_Basis            real2recip          1.7319         2808      0.00062   1.9       %
   PotXC               cal_v_eff           2.5375         141       0.018     2.7       %
   XC_Functional       v_xc                45.449         71        0.64      49        %
   XC_Functional       v_xc_libxc          2.5323         141       0.018     2.7       %
   ESolver_OF          Run                 92.159         1         92        1e+02     %
   KEDF_vW             vw_potential        0.20627        140       0.0015    0.22      %
 ----------------------------------------------------------------------------------------

 START  Time  : Wed Apr 26 05:34:56 2023
 FINISH Time  : Wed Apr 26 05:36:28 2023
 TOTAL  Time  : 92
 SEE INFORMATION IN : OUT.oftest/
