 *********************************************************
 *                                                       *
 *                  WELCOME TO ABACUS v3.0               *
 *                                                       *
 *            'Atomic-orbital Based Ab-initio            *
 *                  Computation at UStc'                 *
 *                                                       *
 *          Website: http://abacus.ustc.edu.cn/          *
 *                                                       *
 *********************************************************
 Mon Apr 17 14:55:13 2023
 MAKE THE DIR         : OUT.blpstest/
Notice: symbol 'Li_locpsp' is not an element symbol!!!! set the covalent radius to be 0.
 UNIFORM GRID DIM     : 27 * 27 * 27
 UNIFORM GRID DIM(BIG): 27 * 27 * 27
func,idXC_GGA_X_PBE 101
func,idXC_GGA_C_PBE 130
 DONE(0.108039   SEC) : SETUP UNITCELL
 DONE(0.160134   SEC) : SYMMETRY
 DONE(0.512754   SEC) : INIT K-POINTS
 ---------------------------------------------------------
 Self-consistent calculations for electrons
 ---------------------------------------------------------
 SPIN    KPOINTS         PROCESSORS  
 1       256             1           
 ---------------------------------------------------------
 Use plane wave basis
 ---------------------------------------------------------
 ELEMENT NATOM       XC          
 Li      1           
 ---------------------------------------------------------
 Initial plane wave basis and FFT box
 ---------------------------------------------------------
 DONE(0.513682   SEC) : INIT BASIS
 DONE(0.513709   SEC) : INIT PHI
 DONE(0.55271    SEC) : LOCAL POTENTIAL
 DONE(0.552748   SEC) : NON-LOCAL POTENTIAL
 START CHARGE      : atomic
 DONE(0.627219   SEC) : INIT POTENTIAL
 DONE(0.627289   SEC) : INIT OPTIMIZATION
 DONE(0.628146   SEC) : INIT KEDF
======================== Running OFDFT ========================
Iter        Etot(Ha)          Theta      PotNorm     deltaE(Ha)
0     -2.665657713554e-01   2.000e-01   7.658e-02   -2.666e-01  
1     -2.763388226752e-01   6.318e-02   4.877e-02   -9.773e-03  
2     -2.769065389921e-01   1.052e-02   3.019e-02   -5.677e-04  
3     -2.772553864672e-01   1.721e-02   2.785e-03   -3.488e-04  
4     -2.772578375673e-01   7.126e-04   2.129e-03   -2.451e-06  
5     -2.772598559208e-01   1.342e-03   3.520e-04   -2.018e-06  
6     -2.772599003421e-01   1.472e-04   8.803e-05   -4.442e-08  
7     -2.772599048163e-01   5.626e-05   3.698e-05   -4.474e-09  

  |CLASS_NAME---------|NAME---------------|TIME(Sec)-----|CALLS----|AVG------|PER%-------
                       total               10.275         21        0.49      1e+02     %
   Driver              driver_line         10.266         1         10        1e+02     %
   PW_Basis            recip2real          1.7281         1475      0.0012    17        %
   PW_Basis            gathers_scatterp    0.13909        1475      9.4e-05   1.4       %
   Potential           update_from_charge  5.8039         164       0.035     56        %
   Potential           cal_v_eff           5.802          164       0.035     56        %
   H_Hartree_pw        v_hartree           0.48209        164       0.0029    4.7       %
   PW_Basis            real2recip          2.1835         1801      0.0012    21        %
   PW_Basis            gatherp_scatters    0.16199        1801      9e-05     1.6       %
   PotXC               cal_v_eff           5.2869         164       0.032     51        %
   XC_Functional       v_xc                4.8229         82        0.059     47        %
   XC_Functional       v_xc_libxc          5.2683         164       0.032     51        %
   ESolver_OF          Run                 9.6451         1         9.6       94        %
   KEDF_TF             tf_potential        0.65428        163       0.004     6.4       %
   KEDF_WT             wt_potential        2.4895         163       0.015     24        %
   KEDF_vW             vw_potential        0.49737        163       0.0031    4.8       %
 ----------------------------------------------------------------------------------------

 START  Time  : Mon Apr 17 14:55:13 2023
 FINISH Time  : Mon Apr 17 14:55:23 2023
 TOTAL  Time  : 10
 SEE INFORMATION IN : OUT.blpstest/
