 *********************************************************
 *                                                       *
 *                  WELCOME TO ABACUS v3.0               *
 *                                                       *
 *            'Atomic-orbital Based Ab-initio            *
 *                  Computation at UStc'                 *
 *                                                       *
 *          Website: http://abacus.ustc.edu.cn/          *
 *                                                       *
 *********************************************************
 Mon Apr 17 14:44:05 2023
 MAKE THE DIR         : OUT.blpstest/
Notice: symbol 'al_locpsp' is not an element symbol!!!! set the covalent radius to be 0.
 UNIFORM GRID DIM     : 25 * 25 * 25
 UNIFORM GRID DIM(BIG): 25 * 25 * 25
func,idXC_GGA_X_PBE 101
func,idXC_GGA_C_PBE 130
 DONE(0.195265   SEC) : SETUP UNITCELL
 DONE(0.303538   SEC) : SYMMETRY
 DONE(0.780834   SEC) : INIT K-POINTS
 ---------------------------------------------------------
 Self-consistent calculations for electrons
 ---------------------------------------------------------
 SPIN    KPOINTS         PROCESSORS  
 1       286             1           
 ---------------------------------------------------------
 Use plane wave basis
 ---------------------------------------------------------
 ELEMENT NATOM       XC          
 Al      1           
 ---------------------------------------------------------
 Initial plane wave basis and FFT box
 ---------------------------------------------------------
 DONE(0.78173    SEC) : INIT BASIS
 DONE(0.781769   SEC) : INIT PHI
 DONE(0.805973   SEC) : LOCAL POTENTIAL
 DONE(0.806017   SEC) : NON-LOCAL POTENTIAL
 START CHARGE      : atomic
 DONE(0.856043   SEC) : INIT POTENTIAL
 DONE(0.856102   SEC) : INIT OPTIMIZATION
 DONE(0.85691    SEC) : INIT KEDF
======================== Running OFDFT ========================
Iter        Etot(Ha)          Theta      PotNorm     deltaE(Ha)
0     -1.977057399448e+00   2.000e-01   1.834e-01   -1.977e+00  
1     -1.989194887434e+00   5.164e-02   2.371e-01   -1.214e-02  
2     -2.078285870307e+00   9.658e-02   1.463e-01   -8.909e-02  
3     -2.089946719055e+00   5.488e-02   1.210e-02   -1.166e-02  
4     -2.090014520281e+00   3.033e-03   9.096e-04   -6.780e-05  
5     -2.090014935896e+00   3.170e-04   7.563e-05   -4.156e-07  
6     -2.090014937831e+00   1.379e-05   6.342e-06   -1.935e-09  

  |CLASS_NAME---------|NAME---------------|TIME(Sec)-----|CALLS----|AVG------|PER%-------
                       total               6.3472         21        0.3       1e+02     %
   Driver              driver_line         6.3062         1         6.3       99        %
   PW_Basis            setuptransform      0.12976        1         0.13      2         %
   PW_Basis            recip2real          0.76717        1475      0.00052   12        %
   Potential           update_from_charge  3.0994         164       0.019     49        %
   Potential           cal_v_eff           3.0982         164       0.019     49        %
   H_Hartree_pw        v_hartree           0.21957        164       0.0013    3.5       %
   PW_Basis            real2recip          0.96565        1801      0.00054   15        %
   PotXC               cal_v_eff           2.8642         164       0.017     45        %
   XC_Functional       v_xc                2.7527         82        0.034     43        %
   XC_Functional       v_xc_libxc          2.8552         164       0.017     45        %
   ESolver_OF          Run                 5.4901         1         5.5       86        %
   KEDF_TF             tf_potential        0.48894        163       0.003     7.7       %
   KEDF_WT             wt_potential        1.5918         163       0.0098    25        %
   KEDF_vW             vw_potential        0.21022        163       0.0013    3.3       %
 ----------------------------------------------------------------------------------------

 START  Time  : Mon Apr 17 14:44:05 2023
 FINISH Time  : Mon Apr 17 14:44:12 2023
 TOTAL  Time  : 7
 SEE INFORMATION IN : OUT.blpstest/
