 *********************************************************
 *                                                       *
 *                  WELCOME TO ABACUS v3.0               *
 *                                                       *
 *            'Atomic-orbital Based Ab-initio            *
 *                  Computation at UStc'                 *
 *                                                       *
 *          Website: http://abacus.ustc.edu.cn/          *
 *                                                       *
 *********************************************************
 Mon Jul 24 14:10:10 2023
 MAKE THE DIR         : OUT.blpstest/
Notice: symbol 'Ga_locpsp' is not an element symbol!!!! set the covalent radius to be 0.
Notice: symbol 'P_locpsp' is not an element symbol!!!! set the covalent radius to be 0.
 UNIFORM GRID DIM     : 36 * 36 * 36
 UNIFORM GRID DIM(BIG): 36 * 36 * 36
func,idXC_GGA_X_PBE 101
func,idXC_GGA_C_PBE 130
 DONE(0.230057   SEC) : SETUP UNITCELL
 DONE(0.289977   SEC) : SYMMETRY
 DONE(0.637708   SEC) : INIT K-POINTS
 ---------------------------------------------------------
 Self-consistent calculations for electrons
 ---------------------------------------------------------
 SPIN    KPOINTS         PROCESSORS  
 1       256             1           
 ---------------------------------------------------------
 Use plane wave basis
 ---------------------------------------------------------
 ELEMENT NATOM       XC          
 Ga      1           
 P       1           
 ---------------------------------------------------------
 Initial plane wave basis and FFT box
 ---------------------------------------------------------
 DONE(0.800839   SEC) : INIT PLANEWAVE
 MEMORY FOR PSI (MB)  : 76.7109
 DONE(0.853669   SEC) : LOCAL POTENTIAL
 DONE(0.853721   SEC) : NON-LOCAL POTENTIAL
 DONE(0.853822   SEC) : INIT BASIS
 START CHARGE      : atomic
 DONE(1.00427    SEC) : INIT SCF
 ITER   ETOT(eV)       EDIFF(eV)      DRHO       TIME(s)    
 CG1    -2.346130e+02  0.000000e+00   2.874e+00  7.788e+01  
 CG2    -2.422949e+02  -7.681856e+00  2.544e-01  4.506e+01  
 CG3    -2.431247e+02  -8.298300e-01  1.310e-02  6.056e+01  
 CG4    -2.431482e+02  -2.346571e-02  2.757e-04  5.824e+01  
 CG5    -2.431502e+02  -2.062285e-03  2.764e-05  9.045e+01  
 CG6    -2.431503e+02  -8.132290e-05  1.371e-06  9.084e+01  
 CG7    -2.431503e+02  -3.502993e-06  3.202e-09  9.109e+01  
 CG8    -2.431503e+02  -1.121239e-07  2.330e-09  1.281e+02  
 CG9    -2.431503e+02  -3.267156e-09  8.563e-11  5.582e+01  

  |CLASS_NAME---------|NAME---------------|TIME(Sec)-----|CALLS----|AVG------|PER%-------
                       total               699.11         17        41        1e+02     %
   Driver              driver_line         699.1          1         7e+02     1e+02     %
   PW_Basis            setuptransform      0.20872        1         0.21      0.03      %
   PW_Basis_K          setuptransform      0.12061        1         0.12      0.017     %
   ESolver_KS_PW       Run                 698.23         1         7e+02     1e+02     %
   PW_Basis            recip2real          0.27769        62        0.0045    0.04      %
   Potential           update_from_charge  1.4774         10        0.15      0.21      %
   Potential           cal_v_eff           1.4745         10        0.15      0.21      %
   H_Hartree_pw        v_hartree           0.11734        10        0.012     0.017     %
   PW_Basis            real2recip          0.49608        98        0.0051    0.071     %
   PotXC               cal_v_eff           1.3475         10        0.13      0.19      %
   XC_Functional       v_xc                375.79         5         75        54        %
   XC_Functional       v_xc_libxc          1.335          10        0.13      0.19      %
   HSolverPW           solve               696.2          9         77        1e+02     %
   DiagoIterAssist     diagH_subspace      138.79         2304      0.06      20        %
   OperatorPW          hPsi                615.75         78294     0.0079    88        %
   Operator            EkineticPW          3.8            78294     4.9e-05   0.54      %
   Operator            VeffPW              610.18         78294     0.0078    87        %
   PW_Basis_K          recip2real          323            105942    0.003     46        %
   PW_Basis_K          gathers_scatterp    41.348         105942    0.00039   5.9       %
   PW_Basis_K          real2recip          235.02         96726     0.0024    34        %
   PW_Basis_K          gatherp_scatters    14.29          96726     0.00015   2         %
   Operator            NonlocalPW          0.24751        78294     3.2e-06   0.035     %
   DiagoIterAssist     LAPACK_subspace     0.84411        2304      0.00037   0.12      %
   DiagoCG             diag_once           520.68         2304      0.23      74        %
   ElecStatePW         psiToRho            35.002         9         3.9       5         %
   Charge              mix_rho             0.2739         8         0.034     0.039     %
 ----------------------------------------------------------------------------------------

 START  Time  : Mon Jul 24 14:10:10 2023
 FINISH Time  : Mon Jul 24 14:21:49 2023
 TOTAL  Time  : 7e+02
 SEE INFORMATION IN : OUT.blpstest/
