 *********************************************************
 *                                                       *
 *                  WELCOME TO ABACUS                    *
 *                                                       *
 *            'Atomic-orbital Based Ab-initio            *
 *                  Computation at UStc'                 *
 *                                                       *
 *          Website: http://abacus.ustc.edu.cn/          *
 *                                                       *
 *********************************************************
 Wed Aug 31 13:45:52 2022
 MAKE THE DIR         : OUT.ABACUS/
 dft_functional readin is: scan
 dft_functional in pseudopot file is: PBE
In Pseudopot_upf::read_pseudo_header : dft_functional from INPUT does not match that in pseudopot file
Please make sure this is what you need
 dft_functional readin is: scan
 dft_functional in pseudopot file is: PBE
In Pseudopot_upf::read_pseudo_header : dft_functional from INPUT does not match that in pseudopot file
Please make sure this is what you need
 UNIFORM GRID DIM     : 256 * 256 * 256
 UNIFORM GRID DIM(BIG): 128 * 128 * 128
 DONE(0.352779   SEC) : SETUP UNITCELL
 DONE(0.35699    SEC) : INIT K-POINTS
 ---------------------------------------------------------
 Self-consistent calculations for electrons
 ---------------------------------------------------------
 SPIN    KPOINTS         PROCESSORS  NBASE       
 1       Gamma           8           240         
 ---------------------------------------------------------
 Use Systematically Improvable Atomic bases
 ---------------------------------------------------------
 ELEMENT ORBITALS        NBASE       NATOM       XC          
 H       3s2p-10au       9           12          
 O       3s3p2d-10au     22          6           
 ---------------------------------------------------------
 Initial plane wave basis and FFT box
 ---------------------------------------------------------
 DONE(1.01673    SEC) : INIT CHARGE
 START POTENTIAL      : atomic
 DONE(4.14129    SEC) : INIT POTENTIAL
 -------------------------------------------
 SELF-CONSISTENT : 
 -------------------------------------------
 ITER   ETOT(eV)       EDIFF(eV)      DRHO       TIME(s)    
 GE1    -2.821908e+03  0.000000e+00   1.958e-01  3.676e+01  
 GE2    -2.797037e+03  2.487151e+01   7.241e-02  3.676e+01  
 GE3    -2.803072e+03  -6.035412e+00  4.404e-02  3.678e+01  
 GE4    -2.803258e+03  -1.855512e-01  4.112e-03  3.674e+01  
 GE5    -2.803658e+03  -4.005995e-01  2.149e-03  3.711e+01  
 GE6    -2.803538e+03  1.200780e-01   7.530e-04  3.671e+01  
 GE7    -2.803551e+03  -1.289640e-02  1.457e-04  3.682e+01  
 GE8    -2.803542e+03  9.383394e-03   3.769e-05  3.672e+01  
 GE9    -2.803544e+03  -2.275357e-03  1.661e-05  3.672e+01  
 GE10   -2.803543e+03  6.638616e-04   3.359e-06  3.669e+01  
 GE11   -2.803543e+03  -1.078914e-04  1.090e-06  3.667e+01  
 GE12   -2.803543e+03  1.831490e-05   3.691e-07  3.682e+01  
 GE13   -2.803543e+03  3.459277e-06   1.282e-07  3.669e+01  
 GE14   -2.803543e+03  -3.289262e-07  3.099e-08  3.643e+01  
 GE15   -2.803543e+03  -1.786676e-07  1.385e-08  3.645e+01  
 GE16   -2.803543e+03  -4.158812e-08  5.122e-09  3.648e+01  
 GE17   -2.803543e+03  3.408774e-08   1.080e-09  3.658e+01  
 GE18   -2.803543e+03  -1.069024e-08  3.257e-10  3.637e+01  

  |CLASS_NAME---------|NAME---------------|TIME(Sec)-----|CALLS----|AVG------|PER%-------
                       total               749.97         9         83        1e+02     %
   Driver              driver_line         749.96         1         7.5e+02   1e+02     %
   mymath              heapsort            0.19432        2         0.097     0.026     %
   PW_Basis            setup_struc_factor  0.57618        1         0.58      0.077     %
   Potential           init_pot            5.4383         2         2.7       0.73      %
   Potential           set_local_pot       0.22052        2         0.11      0.029     %
   PW_Basis            recip2real          10.13          128       0.079     1.4       %
   PW_Basis            gathers_scatterp    4.5151         128       0.035     0.6       %
   Charge              atomic_rho          0.30777        1         0.31      0.041     %
   Potential           v_of_rho            49.645         20        2.5       6.6       %
   XC_Functional       v_xc                337.96         11        31        45        %
   PW_Basis            real2recip          15.996         206       0.078     2.1       %
   PW_Basis            gatherp_scatters    7.9927         206       0.039     1.1       %
   XC_Functional       v_xc_meta           337.93         11        31        45        %
   H_Hartree_pw        v_hartree           3.8751         20        0.19      0.52      %
   Potential           set_vr_eff          0.1246         20        0.0062    0.017     %
   ORB_control         read_orb_first      0.17506        1         0.18      0.023     %
   LCAO_Orbitals       Read_Orbitals       0.17506        1         0.18      0.023     %
   NOrbital_Lm         extra_uniform       0.12156        13        0.0094    0.016     %
   Mathzone_Add1       Uni_Deriv_Phi       0.11225        13        0.0086    0.015     %
   ORB_control         set_orb_tables      3.2526         1         3.3       0.43      %
   ORB_gen_tables      gen_tables          3.2526         1         3.3       0.43      %
   ORB_table_phi       init_Table          2.5086         1         2.5       0.33      %
   ORB_table_phi       cal_ST_Phi12_R      2.4915         344       0.0072    0.33      %
   ORB_table_beta      init_Table_Beta     0.58421        1         0.58      0.078     %
   ORB_table_beta      VNL_PhiBeta_R       0.58102        92        0.0063    0.077     %
   ESolver_KS_LCAO     Run                 660.7          1         6.6e+02   88        %
   ESolver_KS_LCAO     beforescf           0.40952        1         0.41      0.055     %
   ESolver_KS_LCAO     beforesolver        0.36036        1         0.36      0.048     %
   ESolver_KS_LCAO     set_matrix_grid     0.32839        1         0.33      0.044     %
   Grid_Technique      init                0.32785        1         0.33      0.044     %
   Grid_BigCell        grid_expansion_index0.229          2         0.11      0.031     %
   HSolverLCAO         solve               608.04         18        34        81        %
   HamiltLCAO          updateHk            271.09         18        15        36        %
   LCAO_Hamilt         cal_Hgamma          270.9          18        15        36        %
   Gint_interface      cal_gint            231.38         55        4.2       31        %
   Gint_Gamma          distri_vl_index     10.144         1         10        1.4       %
   Gint_Gamma          distri_vl_value     172.88         18        9.6       23        %
   Gint_Gamma          distri_vl           330.34         9         37        44        %
   DiagoElpa           elpa_solve          0.17377        18        0.0097    0.023     %
   ElecStateLCAO       psiToRho            336.77         18        19        45        %
   Charge              mix_rho             3.8149         17        0.22      0.51      %
   Force_Stress_LCAO   getForceStress      81.668         1         82        11        %
   Forces              cal_force_loc       0.682          1         0.68      0.091     %
   Forces              cal_force_ew        0.49017        1         0.49      0.065     %
   Force_LCAO_gamma    ftable_gamma        77.531         1         78        10        %
   Force_LCAO_gamma    cal_fvl_dphi        30.619         1         31        4.1       %
 ----------------------------------------------------------------------------------------

 START  Time  : Wed Aug 31 13:45:52 2022
 FINISH Time  : Wed Aug 31 13:58:22 2022
 TOTAL  Time  : 7.5e+02
 SEE INFORMATION IN : OUT.ABACUS/
