 *********************************************************
 *                                                       *
 *                  WELCOME TO ABACUS v3.0               *
 *                                                       *
 *            'Atomic-orbital Based Ab-initio            *
 *                  Computation at UStc'                 *
 *                                                       *
 *          Website: http://abacus.ustc.edu.cn/          *
 *                                                       *
 *********************************************************
 Wed Dec 28 12:30:01 2022
 MAKE THE DIR         : OUT.blpstest/
Notice: symbol 'Li_locpsp' is not an element symbol!!!! set the covalent radius to be 0.
 UNIFORM GRID DIM     : 30 * 30 * 30
 UNIFORM GRID DIM(BIG): 30 * 30 * 30
func,idXC_GGA_X_PBE 101
func,idXC_GGA_C_PBE 130
 DONE(0.134708   SEC) : SETUP UNITCELL
 DONE(0.189439   SEC) : SYMMETRY
 DONE(0.540007   SEC) : INIT K-POINTS
 ---------------------------------------------------------
 Self-consistent calculations for electrons
 ---------------------------------------------------------
 SPIN    KPOINTS         PROCESSORS  
 1       256             1           
 ---------------------------------------------------------
 Use plane wave basis
 ---------------------------------------------------------
 ELEMENT NATOM       XC          
 Li      1           
 ---------------------------------------------------------
 Initial plane wave basis and FFT box
 ---------------------------------------------------------
 DONE(0.618406   SEC) : INIT PLANEWAVE
 MEMORY FOR PSI (MB)  : 22.2461
 DONE(0.631414   SEC) : LOCAL POTENTIAL
 DONE(0.631451   SEC) : NON-LOCAL POTENTIAL
 DONE(0.631516   SEC) : INIT BASIS
 START CHARGE      : atomic
 DONE(0.685062   SEC) : INIT SCF
 ITER   ETOT(eV)       EDIFF(eV)      DRHO       TIME(s)    
 CG1    -7.452324e+00  0.000000e+00   9.673e-03  2.511e+01  
 CG2    -7.538484e+00  -8.616007e-02  1.070e-03  6.630e+00  
 CG3    -7.538945e+00  -4.615136e-04  1.653e-07  7.858e+00  
 CG4    -7.538965e+00  -2.024097e-05  6.473e-08  1.672e+01  
 CG5    -7.538966e+00  -6.621452e-07  3.619e-09  8.717e+00  
 CG6    -7.538966e+00  -1.094984e-08  5.723e-11  9.656e+00  

  |CLASS_NAME---------|NAME---------------|TIME(Sec)-----|CALLS----|AVG------|PER%-------
                       total               75.398         17        4.4       1e+02     %
   Driver              driver_line         75.386         1         75        1e+02     %
   PW_Basis            setuptransform      0.11424        1         0.11      0.15      %
   ESolver_KS_PW       Run                 74.755         1         75        99        %
   Potential           update_from_charge  0.24641        7         0.035     0.33      %
   Potential           cal_v_eff           0.24536        7         0.035     0.33      %
   PotXC               cal_v_eff           0.22533        7         0.032     0.3       %
   XC_Functional       v_xc                41.672         4         10        55        %
   XC_Functional       v_xc_libxc          0.22478        7         0.032     0.3       %
   HSolverPW           solve               74.426         7         11        99        %
   DiagoIterAssist     diagH_subspace      12.842         1536      0.0084    17        %
   OperatorPW          hPsi                69.927         36906     0.0019    93        %
   Operator            EkineticPW          0.23407        36906     6.3e-06   0.31      %
   Operator            VeffPW              69.487         36906     0.0019    92        %
   PW_Basis_K          recip2real          35.037         44148     0.00079   46        %
   PW_Basis_K          gathers_scatterp    2.5498         44148     5.8e-05   3.4       %
   PW_Basis_K          real2recip          31.16          43050     0.00072   41        %
   PW_Basis_K          gatherp_scatters    0.67838        43050     1.6e-05   0.9       %
   DiagoIterAssist     LAPACK_subspace     0.10201        1536      6.6e-05   0.14      %
   DiagoCG             diag_once           60.063         1792      0.034     80        %
   ElecStatePW         psiToRho            0.9173         7         0.13      1.2       %
 ----------------------------------------------------------------------------------------

 START  Time  : Wed Dec 28 12:30:01 2022
 FINISH Time  : Wed Dec 28 12:31:17 2022
 TOTAL  Time  : 76
 SEE INFORMATION IN : OUT.blpstest/
