 *********************************************************
 *                                                       *
 *                  WELCOME TO ABACUS v3.0               *
 *                                                       *
 *            'Atomic-orbital Based Ab-initio            *
 *                  Computation at UStc'                 *
 *                                                       *
 *          Website: http://abacus.ustc.edu.cn/          *
 *                                                       *
 *********************************************************
 Mon Apr 17 14:43:51 2023
 MAKE THE DIR         : OUT.blpstest/
Notice: symbol 'al_locpsp' is not an element symbol!!!! set the covalent radius to be 0.
 UNIFORM GRID DIM     : 27 * 27 * 27
 UNIFORM GRID DIM(BIG): 27 * 27 * 27
func,idXC_GGA_X_PBE 101
func,idXC_GGA_C_PBE 130
 DONE(0.117715   SEC) : SETUP UNITCELL
 DONE(0.220842   SEC) : SYMMETRY
 DONE(0.742859   SEC) : INIT K-POINTS
 ---------------------------------------------------------
 Self-consistent calculations for electrons
 ---------------------------------------------------------
 SPIN    KPOINTS         PROCESSORS  
 1       256             1           
 ---------------------------------------------------------
 Use plane wave basis
 ---------------------------------------------------------
 ELEMENT NATOM       XC          
 Al      1           
 ---------------------------------------------------------
 Initial plane wave basis and FFT box
 ---------------------------------------------------------
 DONE(0.743876   SEC) : INIT BASIS
 DONE(0.743904   SEC) : INIT PHI
 DONE(0.802458   SEC) : LOCAL POTENTIAL
 DONE(0.802495   SEC) : NON-LOCAL POTENTIAL
 START CHARGE      : atomic
 DONE(0.881567   SEC) : INIT POTENTIAL
 DONE(0.881643   SEC) : INIT OPTIMIZATION
 DONE(0.882616   SEC) : INIT KEDF
======================== Running OFDFT ========================
Iter        Etot(Ha)          Theta      PotNorm     deltaE(Ha)
0     -2.020363817927e+00   2.000e-01   2.046e-01   -2.020e+00  
1     -2.033376036986e+00   5.552e-02   2.701e-01   -1.301e-02  
2     -2.100925780158e+00   7.593e-02   7.740e-02   -6.755e-02  
3     -2.101401172969e+00   3.467e-03   6.174e-03   -4.754e-04  
4     -2.101412234762e+00   1.057e-03   5.736e-04   -1.106e-05  
5     -2.101412426013e+00   2.009e-04   4.070e-05   -1.913e-07  
6     -2.101412426254e+00   3.848e-06   3.488e-06   -2.413e-10  

  |CLASS_NAME---------|NAME---------------|TIME(Sec)-----|CALLS----|AVG------|PER%-------
                       total               13.909         21        0.66      1e+02     %
   Driver              driver_line         13.899         1         14        1e+02     %
   PW_Basis            recip2real          2.388          1538      0.0016    17        %
   PW_Basis            gathers_scatterp    0.14283        1538      9.3e-05   1         %
   Potential           update_from_charge  7.6202         171       0.045     55        %
   Potential           cal_v_eff           7.6183         171       0.045     55        %
   H_Hartree_pw        v_hartree           0.62891        171       0.0037    4.5       %
   PW_Basis            real2recip          2.8442         1878      0.0015    20        %
   PW_Basis            gatherp_scatters    0.19632        1878      0.0001    1.4       %
   PotXC               cal_v_eff           6.9638         171       0.041     50        %
   XC_Functional       v_xc                6.5638         86        0.076     47        %
   XC_Functional       v_xc_libxc          6.9497         171       0.041     50        %
   ESolver_OF          Run                 13.025         1         13        94        %
   KEDF_TF             tf_potential        0.95761        170       0.0056    6.9       %
   KEDF_WT             wt_potential        3.517          170       0.021     25        %
   KEDF_vW             vw_potential        0.73094        170       0.0043    5.3       %
 ----------------------------------------------------------------------------------------

 START  Time  : Mon Apr 17 14:43:51 2023
 FINISH Time  : Mon Apr 17 14:44:05 2023
 TOTAL  Time  : 14
 SEE INFORMATION IN : OUT.blpstest/
