                                                                                     
                             WELCOME TO ABACUS                                       
                                                                                     
               'Atomic-orbital Based Ab-initio Computation at UStc'                  
                                                                                     
                     Website: http://abacus.ustc.edu.cn/                             
                                                                                     
    Version: Parallel, in development
    Processor Number is 16
    Start Time is Sun Mar 27 16:17:23 2022
                                                                                     
 ------------------------------------------------------------------------------------

 READING GENERAL INFORMATION
                           global_out_dir = OUT.stack/
                           global_in_card = INPUT
                               pseudo_dir = 
                              orbital_dir = 
                              pseudo_type = blps
                                    DRANK = 1
                                    DSIZE = 16
                                   DCOLOR = 1
                                    GRANK = 1
                                    GSIZE = 1




 >>>>>>>>>>>>>>>>>>>>>>>>>>>>>>>>>>>>>>>>>>>>>>>>>>>>>>>>>>>>>>>>>>>>>>
 |                                                                    |
 | Reading atom information in unitcell:                              |
 | From the input file and the structure file we know the number of   |
 | different elments in this unitcell, then we list the detail        |
 | information for each element, especially the zeta and polar atomic |
 | orbital number for each element. The total atom number is counted. |
 | We calculate the nearest atom distance for each atom and show the  |
 | Cartesian and Direct coordinates for each atom. We list the file   |
 | address for atomic orbitals. The volume and the lattice vectors    |
 | in real and reciprocal space is also shown.                        |
 |                                                                    |
 <<<<<<<<<<<<<<<<<<<<<<<<<<<<<<<<<<<<<<<<<<<<<<<<<<<<<<<<<<<<<<<<<<<<<<




 READING UNITCELL INFORMATION
                                    ntype = 1
                 atom label for species 1 = Al
                  lattice constant (Bohr) = 7.50241
              lattice constant (Angstrom) = 3.9701

 READING ATOM TYPE 1
                               atom label = Al
                      L=0, number of zeta = 1
                      L=1, number of zeta = 1
                      L=2, number of zeta = 1
             number of atom for this type = 20
                      start magnetization = FALSE
                      start magnetization = FALSE
                      start magnetization = FALSE
                      start magnetization = FALSE
                      start magnetization = FALSE
                      start magnetization = FALSE
                      start magnetization = FALSE
                      start magnetization = FALSE
                      start magnetization = FALSE
                      start magnetization = FALSE
                      start magnetization = FALSE
                      start magnetization = FALSE
                      start magnetization = FALSE
                      start magnetization = FALSE
                      start magnetization = FALSE
                      start magnetization = FALSE
                      start magnetization = FALSE
                      start magnetization = FALSE
                      start magnetization = FALSE
                      start magnetization = FALSE

                        TOTAL ATOM NUMBER = 20

 DIRECT COORDINATES
         atom                   x                   y                   z                 mag                  vx                  vy                  vz
     taud_Al1                   0                   0                   0                   0                   0                   0                   0
     taud_Al2            0.333333            0.333333                0.05                   0                   0                   0                   0
     taud_Al3            0.666667            0.666667                 0.1                   0                   0                   0                   0
     taud_Al4                   0                   0                0.15                   0                   0                   0                   0
     taud_Al5            0.333333            0.333333                 0.2                   0                   0                   0                   0
     taud_Al6            0.733333            0.733333                0.25                   0                   0                   0                   0
     taud_Al7           0.0666667           0.0666667                 0.3                   0                   0                   0                   0
     taud_Al8                 0.4                 0.4                0.35                   0                   0                   0                   0
     taud_Al9            0.733333            0.733333                 0.4                   0                   0                   0                   0
    taud_Al10           0.0666667           0.0666667                0.45                   0                   0                   0                   0
    taud_Al11            0.733333            0.733333                 0.5                   0                   0                   0                   0
    taud_Al12                 0.4                 0.4                0.55                   0                   0                   0                   0
    taud_Al13           0.0666667           0.0666667                 0.6                   0                   0                   0                   0
    taud_Al14            0.733333            0.733333                0.65                   0                   0                   0                   0
    taud_Al15            0.333333            0.333333                 0.7                   0                   0                   0                   0
    taud_Al16                   0                   0                0.75                   0                   0                   0                   0
    taud_Al17            0.666667            0.666667                 0.8                   0                   0                   0                   0
    taud_Al18            0.333333            0.333333                0.85                   0                   0                   0                   0
    taud_Al19                   0                   0                 0.9                   0                   0                   0                   0
    taud_Al20            0.666667            0.666667                0.95                   0                   0                   0                   0


                          Volume (Bohr^3) = 2111.41
                             Volume (A^3) = 312.878

 Lattice vectors: (Cartesian coordinate: in unit of a_0)
            +0.707107                  +0                  +0
            +0.353553           +0.612372                  +0
                   +0                  +0             +11.547
 Reciprocal vectors: (Cartesian coordinate: in unit of 2 pi/a_0)
             +1.41421           -0.816497                  +0
                   +0            +1.63299                  -0
                   +0                  -0          +0.0866025




 >>>>>>>>>>>>>>>>>>>>>>>>>>>>>>>>>>>>>>>>>>>>>>>>>>>>>>>>>>>>>>>>>>>>>>
 |                                                                    |
 | Reading pseudopotentials files:                                    |
 | The pseudopotential file is in UPF format. The 'NC' indicates that |
 | the type of pseudopotential is 'norm conserving'. Functional of    |
 | exchange and correlation is decided by 4 given parameters in UPF   |
 | file.  We also read in the 'core correction' if there exists.      |
 | Also we can read the valence electrons number and the maximal      |
 | angular momentum used in this pseudopotential. We also read in the |
 | trail wave function, trail atomic density and local-pseudopotential|
 | on logrithmic grid. The non-local pseudopotential projector is also|
 | read in if there is any.                                           |
 |                                                                    |
 <<<<<<<<<<<<<<<<<<<<<<<<<<<<<<<<<<<<<<<<<<<<<<<<<<<<<<<<<<<<<<<<<<<<<<




                PAO radial cut off (Bohr) = 16

 Read in pseudopotential file is al.lda.lps
                     pseudopotential type = 
                            functional Ex = LDA
                            functional Ec = LDA
                          functional GCEx = NOGX
                          functional GCEc = NOGC
                 nonlocal core correction = 0
                        valence electrons = 3
                                     lmax = 0
                           number of zeta = 0
                     number of projectors = 0
     initial pseudo atomic orbital number = 0
                                   NLOCAL = 180

 SETUP THE ELECTRONS NUMBER
            electron number of element Al = 3
      total electron number of element Al = 60
                           occupied bands = 30
                                   NBANDS = 36
 DONE : SETUP UNITCELL Time : 0.00897507 (SEC)





 >>>>>>>>>>>>>>>>>>>>>>>>>>>>>>>>>>>>>>>>>>>>>>>>>>>>>>>>>>>>>>>>>>>>>>
 |                                                                    |
 | Doing symmetry analysis:                                           |
 | We calculate the norm of 3 vectors and the angles between them,    |
 | the type of Bravais lattice is given. We can judge if the unticell |
 | is a primitive cell. Finally we give the point group operation for |
 | this unitcell. We we use the point group operations to do symmetry |
 | analysis on given k-point mesh and the charge density.             |
 |                                                                    |
 <<<<<<<<<<<<<<<<<<<<<<<<<<<<<<<<<<<<<<<<<<<<<<<<<<<<<<<<<<<<<<<<<<<<<<




 LATTICE VECTORS: (CARTESIAN COORDINATE: IN UNIT OF A0)
            +0.707107                  +0                  +0
            +0.353553           +0.612372                  +0
                   +0                  +0             +11.547
                       right hand lattice = 1
                                   NORM_A = 0.707107
                                   NORM_B = 0.707107
                                   NORM_C = 11.547
                           ALPHA (DEGREE) = 60
                           BETA  (DEGREE) = 90
                           GAMMA (DEGREE) = 90
                             BRAVAIS TYPE = 4
                     BRAVAIS LATTICE NAME = 04. Hexagonal cell
 STANDARD LATTICE VECTORS: (CARTESIAN COORDINATE: IN UNIT OF A0)
            +0.707107                  +0                  +0
            +0.353553           +0.612372                  +0
                   +0                  +0             +11.547
                                    IBRAV = 4
                                  BRAVAIS = HEXAGONAL CELL
                       LATTICE CONSTANT A = 34.7347
                                C/A RATIO = 0.667046
                                    ibrav = 4
                        ROTATION MATRICES = 24
              PURE POINT GROUP OPERATIONS = 2
                   SPACE GROUP OPERATIONS = 2
                                       C2 = 0
                                       C3 = 0
                                       C4 = 0
                                       C6 = 0
                                       S1 = 1
                                       S3 = 0
                                       S4 = 0
                                       S6 = 0
                              POINT GROUP = C_1h
 DONE : SYMMETRY Time : 0.0430676 (SEC)





 >>>>>>>>>>>>>>>>>>>>>>>>>>>>>>>>>>>>>>>>>>>>>>>>>>>>>>>>>>>>>>>>>>>>>>
 |                                                                    |
 | Setup K-points                                                     |
 | We setup the k-points according to input parameters.               |
 | The reduced k-points are set according to symmetry operations.     |
 | We treat the spin as another set of k-points.                      |
 |                                                                    |
 <<<<<<<<<<<<<<<<<<<<<<<<<<<<<<<<<<<<<<<<<<<<<<<<<<<<<<<<<<<<<<<<<<<<<<





 SETUP K-POINTS
                                    nspin = 1
                   Input type of k points = Monkhorst-Pack(Gamma)
                                   nkstot = 100
                               nkstot_ibz = 31
      IBZ             DirectX             DirectY             DirectZ              Weight    ibz2bz
        1                   0                   0                 0.5                0.01         0
        2                   0                 0.9                 0.5                0.04         1
        3                 0.8                   0                 0.5                0.04         2
        4                   0                 0.7                 0.5                0.04         3
        5                 0.6                   0                 0.5                0.04         4
        6                   0                 0.5                 0.5                0.02         5
        7                 0.9                 0.9                 0.5                0.02        11
        8                 0.9                 0.8                 0.5                0.04        12
        9                 0.9                 0.7                 0.5                0.04        13
       10                 0.9                 0.6                 0.5                0.04        14
       11                 0.9                 0.5                 0.5                0.04        15
       12                 0.9                 0.4                 0.5                0.04        16
       13                 0.9                 0.3                 0.5                0.04        17
       14                 0.9                 0.2                 0.5                0.04        18
       15                 0.9                 0.1                 0.5                0.02        19
       16                 0.8                 0.8                 0.5                0.02        22
       17                 0.8                 0.7                 0.5                0.04        23
       18                 0.8                 0.6                 0.5                0.04        24
       19                 0.8                 0.5                 0.5                0.04        25
       20                 0.8                 0.4                 0.5                0.04        26
       21                 0.8                 0.3                 0.5                0.04        27
       22                 0.2                 0.8                 0.5                0.02        28
       23                 0.7                 0.7                 0.5                0.02        33
       24                 0.7                 0.6                 0.5                0.04        34
       25                 0.7                 0.5                 0.5                0.04        35
       26                 0.7                 0.4                 0.5                0.04        36
       27                 0.7                 0.3                 0.5                0.02        37
       28                 0.6                 0.6                 0.5                0.02        44
       29                 0.6                 0.5                 0.5                0.04        45
       30                 0.4                 0.6                 0.5                0.02        46
       31                 0.5                 0.5                 0.5                0.01        55
                               nkstot now = 31

  KPOINTS            DIRECT_X            DIRECT_Y            DIRECT_Z              WEIGHT
        1                   0                   0                 0.5                0.01
        2                   0                 0.9                 0.5                0.04
        3                 0.8                   0                 0.5                0.04
        4                   0                 0.7                 0.5                0.04
        5                 0.6                   0                 0.5                0.04
        6                   0                 0.5                 0.5                0.02
        7                 0.9                 0.9                 0.5                0.02
        8                 0.9                 0.8                 0.5                0.04
        9                 0.9                 0.7                 0.5                0.04
       10                 0.9                 0.6                 0.5                0.04
       11                 0.9                 0.5                 0.5                0.04
       12                 0.9                 0.4                 0.5                0.04
       13                 0.9                 0.3                 0.5                0.04
       14                 0.9                 0.2                 0.5                0.04
       15                 0.9                 0.1                 0.5                0.02
       16                 0.8                 0.8                 0.5                0.02
       17                 0.8                 0.7                 0.5                0.04
       18                 0.8                 0.6                 0.5                0.04
       19                 0.8                 0.5                 0.5                0.04
       20                 0.8                 0.4                 0.5                0.04
       21                 0.8                 0.3                 0.5                0.04
       22                 0.2                 0.8                 0.5                0.02
       23                 0.7                 0.7                 0.5                0.02
       24                 0.7                 0.6                 0.5                0.04
       25                 0.7                 0.5                 0.5                0.04
       26                 0.7                 0.4                 0.5                0.04
       27                 0.7                 0.3                 0.5                0.02
       28                 0.6                 0.6                 0.5                0.02
       29                 0.6                 0.5                 0.5                0.04
       30                 0.4                 0.6                 0.5                0.02
       31                 0.5                 0.5                 0.5                0.01

           k-point number in this process = 31
       minimum distributed K point number = 31

  KPOINTS         CARTESIAN_X         CARTESIAN_Y         CARTESIAN_Z              WEIGHT
        1                   0                   0           0.0433013                0.02
        2                   0             1.46969           0.0433013                0.08
        3             1.13137           -0.653197           0.0433013                0.08
        4                   0              1.1431           0.0433013                0.08
        5            0.848528           -0.489898           0.0433013                0.08
        6                   0            0.816497           0.0433013                0.04
        7             1.27279            0.734847           0.0433013                0.04
        8             1.27279            0.571548           0.0433013                0.08
        9             1.27279            0.408248           0.0433013                0.08
       10             1.27279            0.244949           0.0433013                0.08
       11             1.27279           0.0816497           0.0433013                0.08
       12             1.27279          -0.0816497           0.0433013                0.08
       13             1.27279           -0.244949           0.0433013                0.08
       14             1.27279           -0.408248           0.0433013                0.08
       15             1.27279           -0.571548           0.0433013                0.04
       16             1.13137            0.653197           0.0433013                0.04
       17             1.13137            0.489898           0.0433013                0.08
       18             1.13137            0.326599           0.0433013                0.08
       19             1.13137            0.163299           0.0433013                0.08
       20             1.13137                   0           0.0433013                0.08
       21             1.13137           -0.163299           0.0433013                0.08
       22            0.282843              1.1431           0.0433013                0.04
       23            0.989949            0.571548           0.0433013                0.04
       24            0.989949            0.408248           0.0433013                0.08
       25            0.989949            0.244949           0.0433013                0.08
       26            0.989949           0.0816497           0.0433013                0.08
       27            0.989949          -0.0816497           0.0433013                0.04
       28            0.848528            0.489898           0.0433013                0.04
       29            0.848528            0.326599           0.0433013                0.08
       30            0.565685            0.653197           0.0433013                0.04
       31            0.707107            0.408248           0.0433013                0.02

  KPOINTS            DIRECT_X            DIRECT_Y            DIRECT_Z              WEIGHT
        1                   0                   0                 0.5                0.02
        2                   0                 0.9                 0.5                0.08
        3                 0.8                   0                 0.5                0.08
        4                   0                 0.7                 0.5                0.08
        5                 0.6                   0                 0.5                0.08
        6                   0                 0.5                 0.5                0.04
        7                 0.9                 0.9                 0.5                0.04
        8                 0.9                 0.8                 0.5                0.08
        9                 0.9                 0.7                 0.5                0.08
       10                 0.9                 0.6                 0.5                0.08
       11                 0.9                 0.5                 0.5                0.08
       12                 0.9                 0.4                 0.5                0.08
       13                 0.9                 0.3                 0.5                0.08
       14                 0.9                 0.2                 0.5                0.08
       15                 0.9                 0.1                 0.5                0.04
       16                 0.8                 0.8                 0.5                0.04
       17                 0.8                 0.7                 0.5                0.08
       18                 0.8                 0.6                 0.5                0.08
       19                 0.8                 0.5                 0.5                0.08
       20                 0.8                 0.4                 0.5                0.08
       21                 0.8                 0.3                 0.5                0.08
       22                 0.2                 0.8                 0.5                0.04
       23                 0.7                 0.7                 0.5                0.04
       24                 0.7                 0.6                 0.5                0.08
       25                 0.7                 0.5                 0.5                0.08
       26                 0.7                 0.4                 0.5                0.08
       27                 0.7                 0.3                 0.5                0.04
       28                 0.6                 0.6                 0.5                0.04
       29                 0.6                 0.5                 0.5                0.08
       30                 0.4                 0.6                 0.5                0.04
       31                 0.5                 0.5                 0.5                0.02
 DONE : INIT K-POINTS Time : 0.0683614 (SEC)





 >>>>>>>>>>>>>>>>>>>>>>>>>>>>>>>>>>>>>>>>>>>>>>>>>>>>>>>>>>>>>>>>>>>>>>
 |                                                                    |
 | Setup plane waves:                                                 |
 | Use the energy cutoff and the lattice vectors to generate the      |
 | dimensions of FFT grid. The number of FFT grid on each processor   |
 | is 'nrxx'. The number of plane wave basis in reciprocal space is   |
 | different for charege/potential and wave functions. We also set    |
 | the 'sticks' for the parallel of FFT.                              |
 |                                                                    |
 <<<<<<<<<<<<<<<<<<<<<<<<<<<<<<<<<<<<<<<<<<<<<<<<<<<<<<<<<<<<<<<<<<<<<<





 SETUP THE PLANE WAVE BASIS
     energy cutoff for wavefunc (unit:Ry) = 40
            [fft grid for wave functions] = 24, 24, 360
          [fft grid for charge/potential] = 24, 24, 360
                      [fft grid division] = 1, 1, 1
      [big fft grid for charge/potential] = 24, 24, 360
                                     nbxx = 13248
                                     nrxx = 13248

 SETUP PLANE WAVES FOR CHARGE/POTENTIAL
                    number of plane waves = 72445
                         number of sticks = 313

 SETUP PLANE WAVES FOR WAVE FUNCTIONS
                    number of plane waves = 15377
                         number of sticks = 109

 PARALLEL PW FOR CHARGE/POTENTIAL
     PROC   COLUMNS(POT)             PW
        1             19           4511
        2             20           4524
        3             20           4524
        4             19           4509
        5             19           4509
        6             20           4524
        7             20           4554
        8             20           4554
        9             20           4554
       10             20           4554
       11             19           4509
       12             19           4509
       13             20           4552
       14             19           4507
       15             20           4544
       16             19           4507
 --------------- sum -------------------
       16            313          72445

 PARALLEL PW FOR WAVE FUNCTIONS
     PROC     COLUMNS(W)             PW
        1              7            969
        2              7            971
        3              7            965
        4              7            953
        5              7            953
        6              6            936
        7              7            967
        8              7            957
        9              7            957
       10              7            989
       11              7            989
       12              6            930
       13              6            934
       14              7            969
       15              7            969
       16              7            969
 --------------- sum -------------------
       16            109          15377

 SETUP COORDINATES OF PLANE WAVES
              number of total plane waves = 72445

 SETUP COORDINATES OF PLANE WAVES
                            number of |g| = 2056
                                  max |g| = 228.034
                                  min |g| = 0
 DONE : INIT PLANEWAVE Time : 0.108362 (SEC)

                                     npwx = 636

 SETUP NONLOCAL PSEUDOPOTENTIALS IN PLANE WAVE BASIS
 Al non-local projectors:
      TOTAL NUMBER OF NONLOCAL PROJECTORS = 0

 nhm = 0, not allocate some matrix. DONE : LOCAL POTENTIAL Time : 0.16225 (SEC)


 Init Non-Local PseudoPotential table : 
 Init Non-Local-Pseudopotential done.
 DONE : NON-LOCAL POTENTIAL Time : 0.162448 (SEC)

                                start_pot = atomic
 DONE : INIT POTENTIAL Time : 0.253047 (SEC)


 Make real space PAO into reciprocal space.
       max mesh points in Pseudopotential = 1601
     dq(describe PAO in reciprocal space) = 0.01
                                    max q = 764

 number of pseudo atomic orbitals for Al is 0
 DONE : INIT BASIS Time : 2.53919 (SEC)


 -------------------------------------------
 RELAX CELL : 1
 RELAX IONS : 1 (in total: 1)
 -------------------------------------------

 PW ALGORITHM --------------- ION=   1  ELEC=   1--------------------------------
  K-point    CG iter num      Time(Sec)
        1       7.944444       0.103927
        2       7.944444       0.139068
        3       8.083333       0.141464
        4       8.138889       0.105761
        5       8.138889       0.104978
        6       8.083333       0.104896
        7       8.138889       0.141267
        8       7.944444       0.147979
        9       8.444444       0.108812
       10       8.222222       0.106203
       11       8.111111       0.104912
       12       8.583333       0.151019
       13       8.305556       0.145059
       14       8.111111       0.105358
       15       7.944444       0.103738
       16       7.972222       0.104082
       17       8.333333       0.150971
       18       8.083333       0.139200
       19       7.888889       0.102172
       20       7.583333       0.099183
       21       8.444444       0.108725
       22       8.138889       0.150323
       23       8.583333       0.146426
       24       8.388889       0.107875
       25       8.277778       0.106132
       26       7.777778       0.100265
       27       7.916667       0.150645
       28       8.388889       0.140545
       29       8.138889       0.104406
       30       7.833333       0.101577
       31       7.833333       0.101508

 Density error is 1.701640085981
                          Error Threshold = 0.010000000000

       Energy                       Rydberg                            eV
   E_KohnSham              -85.031216186471            -1156.909048005834
     E_Harris              -85.142961411273            -1158.429419787432
      E_Fermi               +0.629914163664               +8.570421876734

 PW ALGORITHM --------------- ION=   1  ELEC=   2--------------------------------
  K-point    CG iter num      Time(Sec)
        1       2.000000       0.053572
        2       2.222222       0.052955
        3       2.500000       0.060210
        4       2.222222       0.049672
        5       2.333333       0.037689
        6       2.138889       0.035316
        7       2.305556       0.037762
        8       2.472222       0.040052
        9       2.250000       0.036785
       10       2.222222       0.036440
       11       2.250000       0.036801
       12       2.222222       0.036828
       13       2.222222       0.036566
       14       2.222222       0.045683
       15       2.444444       0.062041
       16       2.277778       0.054862
       17       2.222222       0.055554
       18       2.722222       0.055457
       19       2.722222       0.042869
       20       2.472222       0.039727
       21       2.527778       0.040389
       22       2.833333       0.044179
       23       2.138889       0.035685
       24       2.194444       0.036144
       25       2.638889       0.041516
       26       2.444444       0.039339
       27       2.444444       0.045958
       28       2.361111       0.061248
       29       2.083333       0.049962
       30       2.277778       0.056022
       31       2.083333       0.050784

 Density error is 2.074667018829
                          Error Threshold = 0.002836066810

       Energy                       Rydberg                            eV
   E_KohnSham              -84.337794844474            -1147.474566639872
     E_Harris              -85.211990141228            -1159.368603840528
      E_Fermi               +0.622534634283               +8.470018228593

 PW ALGORITHM --------------- ION=   1  ELEC=   3--------------------------------
  K-point    CG iter num      Time(Sec)
        1      16.916667       0.209391
        2      15.750000       0.221083
        3      15.944444       0.252662
        4      15.500000       0.193222
        5      16.194444       0.249792
        6      15.777778       0.225511
        7      15.888889       0.200334
        8      14.972222       0.266242
        9      15.277778       0.191260
       10      15.416667       0.212196
       11      15.388889       0.250349
       12      14.805556       0.184448
       13      15.333333       0.230164
       14      15.472222       0.231635
       15      15.194444       0.190565
       16      16.277778       0.272853
       17      15.250000       0.198423
       18      15.333333       0.190102
       19      14.805556       0.183530
       20      15.916667       0.196516
       21      15.361111       0.189664
       22      15.277778       0.189504
       23      16.138889       0.200304
       24      15.055556       0.186653
       25      16.111111       0.197909
       26      14.361111       0.177298
       27      15.055556       0.185976
       28      15.611111       0.193311
       29      15.222222       0.188051
       30      15.055556       0.186290
       31      15.666667       0.193603

 Density error is 6544.686736826145
                          Error Threshold = 0.002836066810

       Energy                       Rydberg                            eV
   E_KohnSham              -72.070314292003             -980.566931022072
     E_Harris             -176.774778273175            -2405.144247201784
      E_Fermi               -0.531939548142               -7.237408846279

 PW ALGORITHM --------------- ION=   1  ELEC=   4--------------------------------
  K-point    CG iter num      Time(Sec)
        1      11.777778       0.146623
        2      12.861111       0.161319
        3      12.444444       0.156438
        4      13.166667       0.163884
        5      12.555556       0.156192
        6      12.750000       0.159208
        7      12.472222       0.158390
        8      12.500000       0.158135
        9      13.555556       0.169305
       10      13.694444       0.170606
       11      12.194444       0.153089
       12      12.777778       0.160113
       13      13.472222       0.168171
       14      13.388889       0.167585
       15      12.111111       0.152775
       16      12.555556       0.158683
       17      13.777778       0.173231
       18      13.277778       0.165479
       19      13.388889       0.166798
       20      11.972222       0.150770
       21      13.583333       0.169323
       22      13.638889       0.169954
       23      13.194444       0.165222
       24      13.027778       0.161589
       25      12.944444       0.161215
       26      11.861111       0.149143
       27      11.722222       0.147501
       28      12.250000       0.152991
       29      12.444444       0.155153
       30      11.972222       0.150000
       31      12.166667       0.152564

 Density error is 1387.775773904262
                          Error Threshold = 0.002836066810

       Energy                       Rydberg                            eV
   E_KohnSham              -78.112994081876            -1062.781807353794
     E_Harris              -93.516669380552            -1272.359561557633
      E_Fermi               +0.552098921259               +7.511691188777

 PW ALGORITHM --------------- ION=   1  ELEC=   5--------------------------------
  K-point    CG iter num      Time(Sec)
        1       4.888889       0.069313
        2       5.694444       0.078867
        3       7.194444       0.096549
        4       9.055556       0.118161
        5      10.305556       0.131225
        6      10.250000       0.131263
        7       5.666667       0.079281
        8       6.777778       0.092120
        9       9.166667       0.119574
       10      11.027778       0.140085
       11      11.583333       0.146375
       12      11.305556       0.143085
       13      11.583333       0.146854
       14       9.055556       0.118299
       15       6.833333       0.092758
       16       6.666667       0.090564
       17       9.138889       0.119159
       18      11.500000       0.145739
       19      12.666667       0.158567
       20      11.638889       0.146966
       21      12.694444       0.158708
       22      11.333333       0.144488
       23       8.777778       0.115023
       24      11.111111       0.140503
       25      12.500000       0.156387
       26      12.138889       0.152256
       27      11.694444       0.147109
       28      10.333333       0.132213
       29      11.388889       0.143487
       30      11.694444       0.147537
       31      10.277778       0.131607

 Density error is 162.674635415064
                          Error Threshold = 0.002836066810

       Energy                       Rydberg                            eV
   E_KohnSham              -83.045869555765            -1129.897021323127
     E_Harris              -85.943434353523            -1169.320412896856
      E_Fermi               +0.607349286668               +8.263410974923

 PW ALGORITHM --------------- ION=   1  ELEC=   6--------------------------------
  K-point    CG iter num      Time(Sec)
        1       2.666667       0.042114
        2       3.777778       0.056126
        3       4.750000       0.067732
        4       5.833333       0.080465
        5       5.611111       0.076998
        6       5.277778       0.073592
        7       3.833333       0.057083
        8       4.805556       0.069063
        9       5.916667       0.082200
       10       6.083333       0.083493
       11       6.083333       0.083467
       12       5.750000       0.079595
       13       6.166667       0.084854
       14       5.805556       0.080767
       15       4.805556       0.068710
       16       4.750000       0.068217
       17       5.611111       0.078432
       18       7.055556       0.095281
       19       8.027778       0.106252
       20       7.638889       0.101764
       21       8.472222       0.111678
       22       6.972222       0.094167
       23       5.611111       0.077953
       24       6.222222       0.085169
       25       8.416667       0.110653
       26      10.333333       0.132166
       27      10.861111       0.137903
       28       5.833333       0.080283
       29       5.694444       0.078429
       30       7.583333       0.100670
       31       5.000000       0.070198

 Density error is 187.088035987453
                          Error Threshold = 0.002836066810

       Energy                       Rydberg                            eV
   E_KohnSham              -84.152302478703            -1144.950813529890
     E_Harris              -85.930281698571            -1169.141461845681
      E_Fermi               +0.604098083654               +8.219176088581

 PW ALGORITHM --------------- ION=   1  ELEC=   7--------------------------------
  K-point    CG iter num      Time(Sec)
        1       2.222222       0.036903
        2       2.833333       0.044244
        3       3.833333       0.056418
        4       4.222222       0.061290
        5       3.361111       0.050199
        6       3.055556       0.046784
        7       2.472222       0.039793
        8       3.166667       0.048539
        9       4.333333       0.062750
       10       3.638889       0.053789
       11       3.166667       0.048167
       12       3.222222       0.048841
       13       3.527778       0.052518
       14       4.611111       0.066045
       15       3.111111       0.047869
       16       3.805556       0.056465
       17       4.694444       0.067523
       18       5.555556       0.077116
       19       5.305556       0.074407
       20       4.527778       0.064955
       21       5.361111       0.074636
       22       5.777778       0.080434
       23       4.000000       0.058510
       24       3.972222       0.058035
       25       5.388889       0.074829
       26       5.777778       0.079620
       27       5.555556       0.076804
       28       3.416667       0.051102
       29       3.166667       0.048058
       30       4.388889       0.063278
       31       3.472222       0.051823

 Density error is 35.435330349057
                          Error Threshold = 0.002836066810

       Energy                       Rydberg                            eV
   E_KohnSham              -84.932205897662            -1155.561943917411
     E_Harris              -85.283613236007            -1160.343086037913
      E_Fermi               +0.612407977887               +8.332237999923

 PW ALGORITHM --------------- ION=   1  ELEC=   8--------------------------------
  K-point    CG iter num      Time(Sec)
        1       2.111111       0.035548
        2       2.277778       0.037086
        3       2.250000       0.036862
        4       2.361111       0.038368
        5       2.305556       0.037256
        6       2.250000       0.036602
        7       2.111111       0.035396
        8       2.111111       0.035190
        9       2.472222       0.040016
       10       2.416667       0.038940
       11       2.222222       0.036387
       12       2.250000       0.036792
       13       2.500000       0.040247
       14       2.305556       0.037534
       15       2.055556       0.034522
       16       2.055556       0.034567
       17       2.277778       0.037544
       18       2.250000       0.036834
       19       2.305556       0.037367
       20       2.333333       0.037722
       21       2.194444       0.035929
       22       2.250000       0.036976
       23       2.500000       0.039917
       24       2.416667       0.038767
       25       2.277778       0.037261
       26       3.000000       0.045840
       27       2.500000       0.040005
       28       2.277778       0.037092
       29       2.250000       0.036644
       30       2.277778       0.037238
       31       2.222222       0.036333

 Density error is 3.530766543701
                          Error Threshold = 0.002836066810

       Energy                       Rydberg                            eV
   E_KohnSham              -85.082094708013            -1157.601285804620
     E_Harris              -85.100979291794            -1157.858223748409
      E_Fermi               +0.625486277849               +8.510177399561

 PW ALGORITHM --------------- ION=   1  ELEC=   9--------------------------------
  K-point    CG iter num      Time(Sec)
        1       2.000000       0.034426
        2       2.000000       0.033734
        3       2.000000       0.033745
        4       2.000000       0.033656
        5       2.000000       0.033509
        6       2.000000       0.033551
        7       2.000000       0.033829
        8       2.000000       0.033844
        9       2.000000       0.033725
       10       2.000000       0.033773
       11       2.000000       0.033710
       12       2.000000       0.033744
       13       2.000000       0.033695
       14       2.000000       0.033873
       15       2.000000       0.033775
       16       2.000000       0.033886
       17       2.000000       0.033777
       18       2.000000       0.033705
       19       2.000000       0.033698
       20       2.000000       0.033824
       21       2.000000       0.033619
       22       2.000000       0.033694
       23       2.000000       0.033719
       24       2.000000       0.033622
       25       2.000000       0.033681
       26       2.000000       0.033649
       27       2.000000       0.033563
       28       2.000000       0.033699
       29       2.000000       0.033956
       30       2.000000       0.033588
       31       2.000000       0.033577

 Density error is 2.038606105881
                          Error Threshold = 0.002836066810

       Energy                       Rydberg                            eV
   E_KohnSham              -85.072150485596            -1157.465987717569
     E_Harris              -85.104581620010            -1157.907235938206
      E_Fermi               +0.624928206078               +8.502584443586

 PW ALGORITHM --------------- ION=   1  ELEC=  10--------------------------------
  K-point    CG iter num      Time(Sec)
        1       2.222222       0.037192
        2       2.000000       0.033896
        3       2.138889       0.035480
        4       2.000000       0.033717
        5       2.000000       0.033457
        6       2.000000       0.033605
        7       2.000000       0.033946
        8       2.000000       0.033914
        9       2.000000       0.033745
       10       2.000000       0.033735
       11       2.000000       0.033684
       12       2.000000       0.033746
       13       2.000000       0.033670
       14       2.000000       0.033735
       15       2.055556       0.034425
       16       2.250000       0.036974
       17       2.166667       0.036168
       18       2.277778       0.037084
       19       2.111111       0.035010
       20       2.000000       0.033755
       21       2.055556       0.034335
       22       2.111111       0.035027
       23       2.000000       0.033690
       24       2.000000       0.033633
       25       2.000000       0.033616
       26       2.000000       0.033598
       27       2.194444       0.036297
       28       2.000000       0.033691
       29       2.000000       0.033562
       30       2.055556       0.034253
       31       2.000000       0.033649

 Density error is 0.125366433383
                          Error Threshold = 0.002836066810

       Energy                       Rydberg                            eV
   E_KohnSham              -85.115315042171            -1158.053271638636
     E_Harris              -85.112514710671            -1158.015171173945
      E_Fermi               +0.630971251719               +8.584804297570

 PW ALGORITHM --------------- ION=   1  ELEC=  11--------------------------------
  K-point    CG iter num      Time(Sec)
        1       2.416667       0.039451
        2       4.055556       0.059222
        3       6.305556       0.087740
        4       5.194444       0.095478
        5       3.638889       0.076175
        6       3.555556       0.052825
        7       3.722222       0.056229
        8       5.500000       0.078010
        9       4.888889       0.069494
       10       4.055556       0.058992
       11       3.777778       0.055230
       12       3.611111       0.053543
       13       4.000000       0.057878
       14       6.416667       0.088186
       15       5.472222       0.077371
       16       7.222222       0.099333
       17       4.972222       0.070623
       18       9.777778       0.129266
       19       8.444444       0.112477
       20       7.666667       0.103147
       21      10.083333       0.131918
       22      11.388889       0.149082
       23       4.111111       0.059514
       24       3.750000       0.055037
       25       9.361111       0.123160
       26       8.611111       0.112515
       27       7.666667       0.101405
       28       3.666667       0.053849
       29       3.638889       0.053316
       30       7.472222       0.100724
       31       3.500000       0.051790

 Density error is 27.357295064386
                          Error Threshold = 0.000208944056

       Energy                       Rydberg                            eV
   E_KohnSham              -85.274442083817            -1160.218306110901
     E_Harris              -85.333969298884            -1161.028215421894
      E_Fermi               +0.611809039109               +8.324089019793

 PW ALGORITHM --------------- ION=   1  ELEC=  12--------------------------------
  K-point    CG iter num      Time(Sec)
        1       2.194444       0.036896
        2       2.527778       0.040182
        3       3.361111       0.050932
        4       3.361111       0.050498
        5       2.972222       0.045579
        6       2.861111       0.044266
        7       2.638889       0.041860
        8       3.194444       0.049015
        9       3.416667       0.051506
       10       3.138889       0.047777
       11       2.916667       0.045128
       12       2.944444       0.045183
       13       3.138889       0.047911
       14       3.583333       0.053760
       15       3.027778       0.046476
       16       3.333333       0.050686
       17       3.444444       0.051951
       18       4.472222       0.063981
       19       3.722222       0.055062
       20       4.138889       0.060022
       21       3.916667       0.057373
       22       4.250000       0.061268
       23       3.305556       0.049798
       24       3.083333       0.046937
       25       3.861111       0.056588
       26       5.111111       0.071489
       27       4.805556       0.067782
       28       3.027778       0.046331
       29       2.833333       0.043738
       30       3.555556       0.052737
       31       2.833333       0.043665

 Density error is 49.801161006831
                          Error Threshold = 0.000208944056

       Energy                       Rydberg                            eV
   E_KohnSham              -84.946107466448            -1155.751084464030
     E_Harris              -85.372680350015            -1161.554906292845
      E_Fermi               +0.609702983956               +8.295434669404

 PW ALGORITHM --------------- ION=   1  ELEC=  13--------------------------------
  K-point    CG iter num      Time(Sec)
        1       2.250000       0.037229
        2       2.972222       0.045979
        3       5.055556       0.071557
        4       3.833333       0.056480
        5       3.055556       0.046596
        6       2.888889       0.044297
        7       3.027778       0.047070
        8       3.944444       0.058629
        9       4.888889       0.069633
       10       3.277778       0.049512
       11       3.000000       0.046068
       12       2.916667       0.044844
       13       3.333333       0.050116
       14       4.916667       0.070062
       15       3.944444       0.057940
       16       4.166667       0.061068
       17       4.527778       0.065195
       18       7.638889       0.102673
       19       5.750000       0.080004
       20       5.111111       0.071909
       21       5.916667       0.081778
       22       6.666667       0.091030
       23       3.972222       0.058412
       24       3.305556       0.049667
       25       5.527778       0.076780
       26       6.666667       0.090473
       27       7.000000       0.094225
       28       3.138889       0.047303
       29       3.000000       0.045995
       30       4.805556       0.067989
       31       2.916667       0.044977

 Density error is 2.965224963105
                          Error Threshold = 0.000208944056

       Energy                       Rydberg                            eV
   E_KohnSham              -85.174440514322            -1158.857714956835
     E_Harris              -85.160120659694            -1158.662883339363
      E_Fermi               +0.614829330943               +8.365182198351

 PW ALGORITHM --------------- ION=   1  ELEC=  14--------------------------------
  K-point    CG iter num      Time(Sec)
        1       2.166667       0.036460
        2       2.500000       0.039892
        3       3.277778       0.049778
        4       2.861111       0.044423
        5       2.666667       0.041556
        6       2.611111       0.041433
        7       2.527778       0.040499
        8       3.000000       0.046558
        9       3.277778       0.049686
       10       2.666667       0.042286
       11       2.666667       0.042393
       12       2.666667       0.042237
       13       2.722222       0.042561
       14       3.277778       0.049696
       15       3.027778       0.046771
       16       3.638889       0.054452
       17       3.305556       0.050178
       18       5.722222       0.079777
       19       4.138889       0.060518
       20       3.833333       0.056648
       21       3.805556       0.056273
       22       5.944444       0.082506
       23       2.833333       0.044012
       24       2.694444       0.042417
       25       3.888889       0.056860
       26       3.638889       0.054066
       27       3.444444       0.051316
       28       2.611111       0.041129
       29       2.694444       0.042365
       30       4.138889       0.059936
       31       2.666667       0.041912

 Density error is 20.827129316954
                          Error Threshold = 0.000208944056

       Energy                       Rydberg                            eV
   E_KohnSham              -84.993900727880            -1156.401345145509
     E_Harris              -85.245717023034            -1159.827481608866
      E_Fermi               +0.609991822674               +8.299364521768

 PW ALGORITHM --------------- ION=   1  ELEC=  15--------------------------------
  K-point    CG iter num      Time(Sec)
        1       2.222222       0.036974
        2       3.805556       0.056648
        3       5.666667       0.079587
        4       3.694444       0.054596
        5       3.000000       0.045899
        6       2.833333       0.044006
        7       3.916667       0.058196
        8       5.222222       0.074904
        9       4.333333       0.062780
       10       3.222222       0.048612
       11       2.944444       0.045589
       12       2.944444       0.045529
       13       3.222222       0.049019
       14       4.333333       0.062681
       15       5.416667       0.076462
       16       5.277778       0.075257
       17       4.472222       0.064586
       18       8.500000       0.113698
       19       6.083333       0.084096
       20       6.000000       0.083315
       21       6.444444       0.088228
       22       7.500000       0.101436
       23       3.611111       0.053634
       24       3.277778       0.049444
       25       6.000000       0.082852
       26       6.250000       0.085691
       27       6.000000       0.082343
       28       3.083333       0.047143
       29       2.944444       0.045435
       30       6.083333       0.084133
       31       2.861111       0.044383

 Density error is 14.277250768602
                          Error Threshold = 0.000208944056

       Energy                       Rydberg                            eV
   E_KohnSham              -85.087263771108            -1157.671614516030
     E_Harris              -85.210997910743            -1159.355103852203
      E_Fermi               +0.611734201012               +8.323070795243

 PW ALGORITHM --------------- ION=   1  ELEC=  16--------------------------------
  K-point    CG iter num      Time(Sec)
        1       2.166667       0.036480
        2       2.500000       0.039861
        3       3.111111       0.047806
        4       2.805556       0.043392
        5       2.555556       0.040359
        6       2.555556       0.040324
        7       2.555556       0.041281
        8       3.472222       0.052455
        9       3.138889       0.047856
       10       2.527778       0.040149
       11       2.583333       0.041126
       12       2.611111       0.041234
       13       2.611111       0.041483
       14       3.166667       0.048284
       15       3.027778       0.046740
       16       3.277778       0.050013
       17       3.194444       0.048304
       18       4.555556       0.065235
       19       3.916667       0.057670
       20       3.638889       0.053945
       21       4.000000       0.058534
       22       4.361111       0.062566
       23       2.833333       0.044227
       24       2.527778       0.040084
       25       3.666667       0.054398
       26       3.305556       0.049558
       27       3.611111       0.053265
       28       2.583333       0.040833
       29       2.527778       0.040220
       30       3.972222       0.057689
       31       2.583333       0.040976

 Density error is 0.316251294791
                          Error Threshold = 0.000208944056

       Energy                       Rydberg                            eV
   E_KohnSham              -85.131824855485            -1158.277899172616
     E_Harris              -85.144313884725            -1158.447821132776
      E_Fermi               +0.618170089808               +8.410635554564

 PW ALGORITHM --------------- ION=   1  ELEC=  17--------------------------------
  K-point    CG iter num      Time(Sec)
        1       2.111111       0.035543
        2       2.972222       0.045721
        3       2.472222       0.039893
        4       2.305556       0.037388
        5       2.305556       0.037175
        6       2.250000       0.036920
        7       2.972222       0.046182
        8       3.333333       0.050726
        9       2.333333       0.038100
       10       2.388889       0.038365
       11       2.222222       0.036375
       12       2.222222       0.036408
       13       2.333333       0.038075
       14       2.277778       0.037183
       15       3.138889       0.047991
       16       2.444444       0.039365
       17       2.194444       0.036156
       18       2.777778       0.043555
       19       3.722222       0.055134
       20       3.250000       0.049333
       21       3.027778       0.046424
       22       2.638889       0.041928
       23       2.333333       0.037743
       24       2.333333       0.037605
       25       2.777778       0.043307
       26       2.444444       0.038947
       27       2.333333       0.037758
       28       2.222222       0.036628
       29       2.222222       0.036290
       30       3.527778       0.052449
       31       2.166667       0.035647

 Density error is 0.791473763202
                          Error Threshold = 0.000208944056

       Energy                       Rydberg                            eV
   E_KohnSham              -85.139750746233            -1158.385736448516
     E_Harris              -85.145529025075            -1158.464353965406
      E_Fermi               +0.617852751166               +8.406317940827

 PW ALGORITHM --------------- ION=   1  ELEC=  18--------------------------------
  K-point    CG iter num      Time(Sec)
        1       2.000000       0.034277
        2       2.000000       0.033752
        3       2.000000       0.033700
        4       2.000000       0.033663
        5       2.000000       0.033556
        6       2.000000       0.033578
        7       2.000000       0.033984
        8       2.000000       0.033953
        9       2.000000       0.033658
       10       2.000000       0.033589
       11       2.000000       0.033623
       12       2.000000       0.033694
       13       2.000000       0.033743
       14       2.000000       0.033836
       15       2.000000       0.033832
       16       2.000000       0.033815
       17       2.000000       0.033695
       18       2.000000       0.033990
       19       2.000000       0.033607
       20       2.000000       0.033707
       21       2.000000       0.033582
       22       2.000000       0.033662
       23       2.000000       0.033654
       24       2.000000       0.033534
       25       2.000000       0.033610
       26       2.000000       0.033754
       27       2.000000       0.033524
       28       2.000000       0.033576
       29       2.000000       0.033570
       30       2.000000       0.033621
       31       2.000000       0.033605

 Density error is 0.159133177136
                          Error Threshold = 0.000208944056

       Energy                       Rydberg                            eV
   E_KohnSham              -85.141901097666            -1158.414993480712
     E_Harris              -85.143045185812            -1158.430559598517
      E_Fermi               +0.618979481801               +8.421647897576

 PW ALGORITHM --------------- ION=   1  ELEC=  19--------------------------------
  K-point    CG iter num      Time(Sec)
        1       2.000000       0.034224
        2       2.000000       0.033741
        3       2.000000       0.033696
        4       2.000000       0.033607
        5       2.000000       0.033453
        6       2.000000       0.033523
        7       2.000000       0.033855
        8       2.000000       0.033800
        9       2.000000       0.033741
       10       2.000000       0.033691
       11       2.000000       0.034147
       12       2.000000       0.033675
       13       2.000000       0.033715
       14       2.000000       0.033744
       15       2.000000       0.033732
       16       2.000000       0.033755
       17       2.000000       0.033691
       18       2.000000       0.033615
       19       2.000000       0.033596
       20       2.000000       0.033815
       21       2.000000       0.033572
       22       2.000000       0.033642
       23       2.000000       0.033632
       24       2.000000       0.033932
       25       2.000000       0.033557
       26       2.000000       0.033614
       27       2.000000       0.033595
       28       2.000000       0.033564
       29       2.000000       0.033522
       30       2.000000       0.033566
       31       2.000000       0.033493

 Density error is 0.152163665276
                          Error Threshold = 0.000208944056

       Energy                       Rydberg                            eV
   E_KohnSham              -85.139839268306            -1158.386940853115
     E_Harris              -85.142764638472            -1158.426742556136
      E_Fermi               +0.619039762953               +8.422468064735

 PW ALGORITHM --------------- ION=   1  ELEC=  20--------------------------------
  K-point    CG iter num      Time(Sec)
        1       2.000000       0.034423
        2       2.000000       0.033721
        3       2.000000       0.033940
        4       2.000000       0.033651
        5       2.000000       0.033521
        6       2.000000       0.033608
        7       2.000000       0.033818
        8       2.111111       0.035165
        9       2.000000       0.033732
       10       2.000000       0.033637
       11       2.000000       0.033703
       12       2.000000       0.033703
       13       2.000000       0.033704
       14       2.000000       0.033772
       15       2.000000       0.033772
       16       2.000000       0.033744
       17       2.000000       0.033684
       18       2.000000       0.033652
       19       2.000000       0.033690
       20       2.000000       0.033694
       21       2.055556       0.034322
       22       2.000000       0.033673
       23       2.000000       0.033599
       24       2.000000       0.033592
       25       2.055556       0.034529
       26       2.000000       0.033511
       27       2.000000       0.033539
       28       2.000000       0.033563
       29       2.000000       0.033514
       30       2.222222       0.036283
       31       2.000000       0.033599

 Density error is 0.005521948350
                          Error Threshold = 0.000208944056

       Energy                       Rydberg                            eV
   E_KohnSham              -85.141762860041            -1158.413112661331
     E_Harris              -85.141912620298            -1158.415150254167
      E_Fermi               +0.619258027501               +8.425437706254

 PW ALGORITHM --------------- ION=   1  ELEC=  21--------------------------------
  K-point    CG iter num      Time(Sec)
        1       2.166667       0.036229
        2       3.694444       0.054811
        3       3.305556       0.050070
        4       3.000000       0.046101
        5       2.666667       0.041714
        6       2.666667       0.041882
        7       4.777778       0.068881
        8       7.166667       0.098331
        9       3.055556       0.047029
       10       2.694444       0.042157
       11       2.666667       0.042047
       12       2.666667       0.041809
       13       2.750000       0.043129
       14       3.055556       0.046882
       15       7.750000       0.105166
       16       3.444444       0.051847
       17       3.000000       0.046252
       18       4.138889       0.060151
       19       7.194444       0.097508
       20       7.138889       0.097014
       21       4.638889       0.066391
       22       4.250000       0.061508
       23       2.972222       0.045821
       24       2.666667       0.041638
       25       4.111111       0.059719
       26       3.444444       0.051256
       27       3.416667       0.050759
       28       2.666667       0.041946
       29       2.666667       0.041610
       30       5.111111       0.071974
       31       2.666667       0.041725

 Density error is 0.293246296720
                          Error Threshold = 0.000009203247

       Energy                       Rydberg                            eV
   E_KohnSham              -85.142809858009            -1158.427357799489
     E_Harris              -85.145019571160            -1158.457422489296
      E_Fermi               +0.618093342442               +8.409591353074

 PW ALGORITHM --------------- ION=   1  ELEC=  22--------------------------------
  K-point    CG iter num      Time(Sec)
        1       2.111111       0.035695
        2       2.777778       0.043300
        3       2.694444       0.042516
        4       2.444444       0.039059
        5       2.416667       0.039027
        6       2.361111       0.037945
        7       2.611111       0.041928
        8       3.611111       0.054060
        9       2.527778       0.040189
       10       2.555556       0.040679
       11       2.333333       0.037740
       12       2.333333       0.037797
       13       2.527778       0.040532
       14       2.500000       0.039871
       15       3.444444       0.051929
       16       2.666667       0.042318
       17       2.555556       0.040523
       18       3.083333       0.047085
       19       3.638889       0.053900
       20       4.555556       0.065236
       21       3.055556       0.046780
       22       3.166667       0.048319
       23       2.472222       0.039448
       24       2.527778       0.040304
       25       2.972222       0.045621
       26       2.666667       0.041552
       27       2.694444       0.042235
       28       2.388889       0.038479
       29       2.361111       0.037952
       30       4.305556       0.062336
       31       2.361111       0.037925

 Density error is 0.035043562616
                          Error Threshold = 0.000009203247

       Energy                       Rydberg                            eV
   E_KohnSham              -85.143709410116            -1158.439596833790
     E_Harris              -85.143984209527            -1158.443335671599
      E_Fermi               +0.618549741388               +8.415800979300

 PW ALGORITHM --------------- ION=   1  ELEC=  23--------------------------------
  K-point    CG iter num      Time(Sec)
        1       2.000000       0.034285
        2       2.444444       0.039226
        3       2.222222       0.036234
        4       2.333333       0.038071
        5       2.222222       0.036218
        6       2.222222       0.036325
        7       2.333333       0.038112
        8       2.527778       0.040701
        9       2.222222       0.036468
       10       2.250000       0.036711
       11       2.222222       0.036421
       12       2.222222       0.036780
       13       2.222222       0.036449
       14       2.222222       0.036484
       15       2.722222       0.043107
       16       2.277778       0.037253
       17       2.194444       0.036118
       18       2.444444       0.039147
       19       2.333333       0.038012
       20       2.833333       0.043900
       21       2.333333       0.038008
       22       2.444444       0.039194
       23       2.277778       0.037141
       24       2.250000       0.036934
       25       2.333333       0.037664
       26       2.305556       0.037340
       27       2.277778       0.036957
       28       2.222222       0.036322
       29       2.222222       0.036537
       30       2.361111       0.038019
       31       2.222222       0.036226

 Density error is 0.020941667576
                          Error Threshold = 0.000009203247

       Energy                       Rydberg                            eV
   E_KohnSham              -85.143405827264            -1158.435466377192
     E_Harris              -85.144062012614            -1158.444394236897
      E_Fermi               +0.618511410992               +8.415279467517

 PW ALGORITHM --------------- ION=   1  ELEC=  24--------------------------------
  K-point    CG iter num      Time(Sec)
        1       2.111111       0.035554
        2       2.777778       0.043647
        3       2.472222       0.039655
        4       2.333333       0.037893
        5       2.305556       0.037533
        6       2.250000       0.036639
        7       2.722222       0.042991
        8       3.694444       0.055566
        9       2.416667       0.038918
       10       2.305556       0.037397
       11       2.277778       0.037402
       12       2.277778       0.037096
       13       2.333333       0.037833
       14       2.416667       0.039419
       15       3.250000       0.049569
       16       2.500000       0.040077
       17       2.388889       0.038594
       18       2.722222       0.042841
       19       3.305556       0.049992
       20       4.333333       0.062955
       21       2.861111       0.044270
       22       2.861111       0.044620
       23       2.388889       0.038578
       24       2.277778       0.037302
       25       2.805556       0.043486
       26       2.583333       0.041078
       27       2.638889       0.041424
       28       2.333333       0.037726
       29       2.277778       0.037036
       30       3.833333       0.056903
       31       2.222222       0.036311

 Density error is 0.239450607947
                          Error Threshold = 0.000009203247

       Energy                       Rydberg                            eV
   E_KohnSham              -85.142798856723            -1158.427208119320
     E_Harris              -85.144909841212            -1158.455929536752
      E_Fermi               +0.618160757492               +8.410508581890

 PW ALGORITHM --------------- ION=   1  ELEC=  25--------------------------------
  K-point    CG iter num      Time(Sec)
        1       2.111111       0.035773
        2       2.750000       0.043321
        3       2.444444       0.039292
        4       2.333333       0.038098
        5       2.277778       0.036971
        6       2.222222       0.036309
        7       2.805556       0.044228
        8       3.777778       0.056243
        9       2.333333       0.037922
       10       2.277778       0.037381
       11       2.277778       0.037157
       12       2.250000       0.036806
       13       2.277778       0.037149
       14       2.333333       0.038138
       15       3.361111       0.050955
       16       2.388889       0.038672
       17       2.361111       0.038879
       18       2.555556       0.041083
       19       3.277778       0.049597
       20       3.944444       0.057743
       21       2.944444       0.045543
       22       2.750000       0.043233
       23       2.277778       0.037132
       24       2.277778       0.037032
       25       2.750000       0.043081
       26       2.583333       0.040795
       27       2.527778       0.040382
       28       2.277778       0.036985
       29       2.277778       0.036924
       30       4.055556       0.059377
       31       2.250000       0.036587

 Density error is 0.051450251581
                          Error Threshold = 0.000009203247

       Energy                       Rydberg                            eV
   E_KohnSham              -85.143997426267            -1158.443515494571
     E_Harris              -85.144157112577            -1158.445688138270
      E_Fermi               +0.618439617108               +8.414302661613

 PW ALGORITHM --------------- ION=   1  ELEC=  26--------------------------------
  K-point    CG iter num      Time(Sec)
        1       2.000000       0.034245
        2       2.000000       0.033815
        3       2.000000       0.033819
        4       2.000000       0.033703
        5       2.000000       0.033609
        6       2.000000       0.033651
        7       2.000000       0.033875
        8       2.000000       0.033907
        9       2.000000       0.033793
       10       2.000000       0.033718
       11       2.000000       0.033750
       12       2.000000       0.033691
       13       2.000000       0.033773
       14       2.000000       0.033872
       15       2.000000       0.033868
       16       2.000000       0.033859
       17       2.000000       0.033762
       18       2.000000       0.033598
       19       2.000000       0.033701
       20       2.000000       0.033692
       21       2.000000       0.033671
       22       2.000000       0.033694
       23       2.000000       0.033770
       24       2.000000       0.033769
       25       2.000000       0.033827
       26       2.000000       0.033745
       27       2.000000       0.033605
       28       2.000000       0.033643
       29       2.000000       0.033569
       30       2.000000       0.033752
       31       2.000000       0.033610

 Density error is 0.037509425593
                          Error Threshold = 0.000009203247

       Energy                       Rydberg                            eV
   E_KohnSham              -85.143827312546            -1158.441200978654
     E_Harris              -85.144044458602            -1158.444155402316
      E_Fermi               +0.618511395747               +8.415279260096

 PW ALGORITHM --------------- ION=   1  ELEC=  27--------------------------------
  K-point    CG iter num      Time(Sec)
        1       2.000000       0.034507
        2       2.333333       0.037861
        3       2.000000       0.033751
        4       2.000000       0.033698
        5       2.000000       0.033689
        6       2.000000       0.033622
        7       2.305556       0.037731
        8       2.472222       0.040178
        9       2.000000       0.033713
       10       2.000000       0.033603
       11       2.000000       0.033716
       12       2.000000       0.033840
       13       2.000000       0.033766
       14       2.000000       0.033780
       15       2.305556       0.037709
       16       2.000000       0.033883
       17       2.000000       0.033791
       18       2.083333       0.034702
       19       2.000000       0.033631
       20       2.416667       0.039122
       21       2.000000       0.033688
       22       2.111111       0.035086
       23       2.000000       0.033758
       24       2.000000       0.033671
       25       2.000000       0.033640
       26       2.000000       0.033842
       27       2.000000       0.033655
       28       2.000000       0.033604
       29       2.000000       0.033625
       30       2.138889       0.035265
       31       2.000000       0.033526

 Density error is 0.007366588802
                          Error Threshold = 0.000009203247

       Energy                       Rydberg                            eV
   E_KohnSham              -85.144016193994            -1158.443770842594
     E_Harris              -85.143954286684            -1158.442928550424
      E_Fermi               +0.618577938902               +8.416184626161

 PW ALGORITHM --------------- ION=   1  ELEC=  28--------------------------------
  K-point    CG iter num      Time(Sec)
        1       2.000000       0.034313
        2       2.000000       0.033828
        3       2.000000       0.033751
        4       2.000000       0.033883
        5       2.000000       0.033543
        6       2.000000       0.033556
        7       2.000000       0.033878
        8       2.000000       0.033833
        9       2.000000       0.033674
       10       2.000000       0.033649
       11       2.000000       0.033687
       12       2.000000       0.033998
       13       2.000000       0.033716
       14       2.000000       0.033784
       15       2.000000       0.033848
       16       2.000000       0.033733
       17       2.000000       0.033700
       18       2.000000       0.033657
       19       2.000000       0.033820
       20       2.000000       0.033723
       21       2.000000       0.033622
       22       2.000000       0.033668
       23       2.000000       0.033693
       24       2.000000       0.033568
       25       2.000000       0.033665
       26       2.000000       0.033596
       27       2.000000       0.033557
       28       2.000000       0.033626
       29       2.000000       0.033584
       30       2.000000       0.033554
       31       2.000000       0.033555

 Density error is 0.024378659997
                          Error Threshold = 0.000009203247

       Energy                       Rydberg                            eV
   E_KohnSham              -85.143775810044            -1158.440500251168
     E_Harris              -85.144084394812            -1158.444698762327
      E_Fermi               +0.618479094755               +8.414839782553

 PW ALGORITHM --------------- ION=   1  ELEC=  29--------------------------------
  K-point    CG iter num      Time(Sec)
        1       2.000000       0.034272
        2       2.555556       0.040821
        3       2.305556       0.037813
        4       2.138889       0.035399
        5       2.055556       0.034248
        6       2.083333       0.034602
        7       2.472222       0.039861
        8       3.138889       0.048307
        9       2.166667       0.035812
       10       2.111111       0.035423
       11       2.083333       0.034677
       12       2.055556       0.034408
       13       2.111111       0.035108
       14       2.166667       0.035769
       15       2.416667       0.039015
       16       2.222222       0.036841
       17       2.166667       0.035766
       18       2.388889       0.038398
       19       2.666667       0.042164
       20       2.833333       0.043903
       21       2.305556       0.037642
       22       2.472222       0.039518
       23       2.138889       0.035457
       24       2.083333       0.034625
       25       2.361111       0.037995
       26       2.222222       0.036657
       27       2.194444       0.035906
       28       2.083333       0.034775
       29       2.055556       0.034258
       30       3.500000       0.052224
       31       2.166667       0.035588

 Density error is 0.013947969786
                          Error Threshold = 0.000009203247

       Energy                       Rydberg                            eV
   E_KohnSham              -85.143852574704            -1158.441544687938
     E_Harris              -85.144225130616            -1158.446613571169
[...]
      35       8.559237       0.001690
      36       8.561082       0.001587

 22/31 kpoint (Cartesian) = 0.282843 1.143095 0.043301 (624 pws)
       1      -0.722222       0.040000
       2      -0.721539       0.040000
       3      -0.583246       0.040000
       4      -0.571823       0.040000
       5      -0.301587       0.040000
       6      -0.286489       0.040000
       7       0.120466       0.040000
       8       0.138612       0.040000
       9       0.685294       0.040000
      10       0.704635       0.040000
      11       1.391264       0.040000
      12       1.409794       0.040000
      13       2.239129       0.040000
      14       2.253893       0.040000
      15       3.224797       0.040000
      16       3.236362       0.040000
      17       4.347049       0.040000
      18       4.355043       0.040000
      19       5.601398       0.040000
      20       5.602266       0.040000
      21       6.966993       0.040000
      22       6.967772       0.040000
      23       8.337106       0.034477
      24       8.352996       0.032269
      25       9.102291       0.000000
      26       9.134806       0.000000
      27       9.271643       0.000000
      28       9.285758       0.000000
      29       9.431818       0.000000
      30       9.436729       0.000000
      31       9.576976       0.000000
      32       9.601727       0.000000
      33       9.806590       0.000000
      34       9.818325       0.000000
      35       9.921724       0.000000
      36       9.947022       0.000000

 23/31 kpoint (Cartesian) = 0.989949 0.571548 0.043301 (516 pws)
       1      -1.478295       0.040000
       2      -1.477602       0.040000
       3      -1.339185       0.040000
       4      -1.327870       0.040000
       5      -1.057147       0.040000
       6      -1.042309       0.040000
       7      -0.634485       0.040000
       8      -0.616838       0.040000
       9      -0.068754       0.040000
      10      -0.050243       0.040000
      11       0.638549       0.040000
      12       0.655783       0.040000
      13       1.488283       0.040000
      14       1.501271       0.040000
      15       2.476777       0.040000
      16       2.486154       0.040000
      17       3.603355       0.040000
      18       3.609106       0.040000
      19       4.863732       0.040000
      20       4.865744       0.040000
      21       6.250402       0.040000
      22       6.253370       0.040000
      23       7.692806       0.040000
      24       7.698266       0.040000
      25       8.462494       0.010029
      26       8.478301       0.007424
      27       8.694695       0.000002
      28       8.713346       0.000001
      29       9.059353       0.000000
      30       9.086189       0.000000
      31       9.513321       0.000000
      32       9.524031       0.000000
      33       9.752694       0.000000
      34       9.808853       0.000000
      35      10.060471       0.000000
      36      10.073977       0.000000

 24/31 kpoint (Cartesian) = 0.989949 0.408248 0.043301 (522 pws)
       1      -0.470503       0.080000
       2      -0.469790       0.080000
       3      -0.331547       0.080000
       4      -0.320264       0.080000
       5      -0.050013       0.080000
       6      -0.035238       0.080000
       7       0.371879       0.080000
       8       0.389406       0.080000
       9       0.936375       0.080000
      10       0.954678       0.080000
      11       1.641774       0.080000
      12       1.658669       0.080000
      13       2.488425       0.080000
      14       2.500891       0.080000
      15       3.471437       0.080000
      16       3.480072       0.080000
      17       4.586740       0.080000
      18       4.591473       0.080000
      19       5.814046       0.080000
      20       5.816709       0.080000
      21       6.935109       0.080000
      22       6.939808       0.080000
      23       7.094681       0.080000
      24       7.103558       0.080000
      25       7.188495       0.080000
      26       7.190189       0.080000
      27       7.578886       0.080000
      28       7.595205       0.080000
      29       8.061210       0.080000
      30       8.064590       0.080000
      31       8.596539       0.000425
      32       8.617589       0.000174
      33       8.997119       0.000000
      34       9.006621       0.000000
      35       9.259831       0.000000
      36       9.281560       0.000000

 25/31 kpoint (Cartesian) = 0.989949 0.244949 0.043301 (526 pws)
       1       1.039556       0.080000
       2       1.040312       0.080000
       3       1.178214       0.080000
       4       1.189436       0.080000
       5       1.458662       0.080000
       6       1.473337       0.080000
       7       1.878854       0.080000
       8       1.896206       0.080000
       9       2.440466       0.080000
      10       2.458479       0.080000
      11       3.141036       0.080000
      12       3.157460       0.080000
      13       3.978811       0.080000
      14       3.990460       0.080000
      15       4.941651       0.080000
      16       4.948833       0.080000
      17       5.954541       0.080000
      18       5.957741       0.080000
      19       6.062215       0.080000
      20       6.070525       0.080000
      21       6.210727       0.080000
      22       6.217850       0.080000
      23       6.450186       0.080000
      24       6.470332       0.080000
      25       6.750554       0.080000
      26       6.759957       0.080000
      27       7.226322       0.080000
      28       7.232646       0.080000
      29       7.718466       0.080000
      30       7.741021       0.080000
      31       8.293744       0.076421
      32       8.303483       0.075262
      33       8.497197       0.009848
      34       8.508387       0.007516
      35       8.554691       0.001966
      36       8.568013       0.001249

 26/31 kpoint (Cartesian) = 0.989949 0.081650 0.043301 (528 pws)
       1       3.048413       0.080000
       2       3.049322       0.080000
       3       3.186528       0.080000
       4       3.197492       0.080000
       5       3.464090       0.080000
       6       3.478347       0.080000
       7       3.879463       0.080000
       8       3.896163       0.080000
       9       4.431153       0.080000
      10       4.448099       0.080000
      11       5.107084       0.080000
      12       5.121864       0.080000
      13       5.517384       0.080000
      14       5.517614       0.080000
      15       5.571232       0.080000
      16       5.576055       0.080000
      17       5.670184       0.080000
      18       5.672661       0.080000
      19       5.697156       0.080000
      20       5.716034       0.080000
      21       5.889496       0.080000
      22       5.892791       0.080000
      23       5.965145       0.080000
      24       5.966829       0.080000
      25       5.989090       0.080000
      26       6.019102       0.080000
      27       6.316424       0.080000
      28       6.317355       0.080000
      29       6.394353       0.080000
      30       6.435156       0.080000
      31       6.674865       0.080000
      32       6.698644       0.080000
      33       6.851215       0.080000
      34       6.855518       0.080000
      35       7.007814       0.080000
      36       7.014392       0.080000

 27/31 kpoint (Cartesian) = 0.989949 -0.081650 0.043301 (530 pws)
       1       3.048528       0.040000
       2       3.049412       0.040000
       3       3.186570       0.040000
       4       3.197731       0.040000
       5       3.463950       0.040000
       6       3.478719       0.040000
       7       3.878861       0.040000
       8       3.896719       0.040000
       9       4.429637       0.040000
      10       4.448808       0.040000
      11       5.103098       0.040000
      12       5.121770       0.040000
      13       5.507410       0.040000
      14       5.521911       0.040000
      15       5.554208       0.040000
      16       5.575782       0.040000
      17       5.664756       0.040000
      18       5.678267       0.040000
      19       5.698630       0.040000
      20       5.717660       0.040000
      21       5.909522       0.040000
      22       5.921423       0.040000
      23       5.958898       0.040000
      24       5.964437       0.040000
      25       5.978478       0.040000
      26       6.024472       0.040000
      27       6.317436       0.040000
      28       6.360548       0.040000
      29       6.379595       0.040000
      30       6.395244       0.040000
      31       6.610868       0.040000
      32       6.643069       0.040000
      33       6.826855       0.040000
      34       6.859311       0.040000
      35       7.071686       0.040000
      36       7.079898       0.040000

 28/31 kpoint (Cartesian) = 0.848528 0.489898 0.043301 (520 pws)
       1       0.284599       0.040000
       2       0.285331       0.040000
       3       0.423391       0.040000
       4       0.434644       0.040000
       5       0.704331       0.040000
       6       0.719039       0.040000
       7       1.125289       0.040000
       8       1.142653       0.040000
       9       1.688144       0.040000
      10       1.706121       0.040000
      11       2.390658       0.040000
      12       2.406936       0.040000
      13       3.231517       0.040000
      14       3.242876       0.040000
      15       4.199537       0.040000
      16       4.206186       0.040000
      17       5.214446       0.040000
      18       5.216900       0.040000
      19       5.313231       0.040000
      20       5.321867       0.040000
      21       5.465861       0.040000
      22       5.472866       0.040000
      23       5.699280       0.040000
      24       5.719945       0.040000
      25       6.009070       0.040000
      26       6.019117       0.040000
      27       6.509880       0.040000
      28       6.514207       0.040000
      29       7.016982       0.040000
      30       7.039643       0.040000
      31       7.583004       0.040000
      32       7.607490       0.040000
      33       8.184001       0.039976
      34       8.187349       0.039972
      35       8.372906       0.028845
      36       8.381521       0.027164

 29/31 kpoint (Cartesian) = 0.848528 0.326599 0.043301 (526 pws)
       1       1.541737       0.080000
       2       1.542520       0.080000
       3       1.680206       0.080000
       4       1.691392       0.080000
       5       1.959718       0.080000
       6       1.974320       0.080000
       7       2.378302       0.080000
       8       2.395458       0.080000
       9       2.936386       0.080000
      10       2.953962       0.080000
      11       3.627178       0.080000
      12       3.642932       0.080000
      13       4.046641       0.080000
      14       4.047127       0.080000
      15       4.187274       0.080000
      16       4.196662       0.080000
      17       4.414139       0.080000
      18       4.414805       0.080000
      19       4.492027       0.080000
      20       4.512909       0.080000
      21       4.875261       0.080000
      22       4.893954       0.080000
      23       5.312004       0.080000
      24       5.322975       0.080000
      25       5.447243       0.080000
      26       5.452447       0.080000
      27       6.127321       0.080000
      28       6.145864       0.080000
      29       6.764759       0.080000
      30       6.770634       0.080000
      31       7.224981       0.080000
      32       7.260867       0.080000
      33       7.973199       0.080000
      34       7.998300       0.080000
      35       8.117412       0.079999
      36       8.118146       0.079999

 30/31 kpoint (Cartesian) = 0.565685 0.653197 0.043301 (544 pws)
       1       3.268640       0.040000
       2       3.282327       0.040000
       3       3.304970       0.040000
       4       3.323737       0.040000
       5       3.422935       0.040000
       6       3.441996       0.040000
       7       3.450191       0.040000
       8       3.460842       0.040000
       9       3.698286       0.040000
      10       3.706623       0.040000
      11       3.718437       0.040000
      12       3.759588       0.040000
      13       4.079024       0.040000
      14       4.118087       0.040000
      15       4.168328       0.040000
      16       4.176150       0.040000
      17       4.630301       0.040000
      18       4.638066       0.040000
      19       4.711207       0.040000
      20       4.746199       0.040000
      21       5.283799       0.040000
      22       5.311727       0.040000
      23       5.429008       0.040000
      24       5.441395       0.040000
      25       5.935227       0.040000
      26       5.950035       0.040000
      27       6.422735       0.040000
      28       6.442325       0.040000
      29       7.174948       0.040000
      30       7.189892       0.040000
      31       7.551696       0.040000
      32       7.588031       0.040000
      33       8.243051       0.039681
      34       8.244470       0.039663
      35       8.351710       0.032465
      36       8.365495       0.030200

 31/31 kpoint (Cartesian) = 0.707107 0.408248 0.043301 (524 pws)
       1       2.516399       0.020000
       2       2.529740       0.020000
       3       2.551511       0.020000
       4       2.569562       0.020000
       5       2.670446       0.020000
       6       2.688604       0.020000
       7       2.696370       0.020000
       8       2.707654       0.020000
       9       2.947492       0.020000
      10       2.954996       0.020000
      11       2.964874       0.020000
      12       3.005296       0.020000
      13       3.326027       0.020000
      14       3.364318       0.020000
      15       3.419340       0.020000
      16       3.426261       0.020000
      17       3.882175       0.020000
      18       3.888825       0.020000
      19       3.961130       0.020000
      20       3.995063       0.020000
      21       4.539358       0.020000
      22       4.566367       0.020000
      23       4.681729       0.020000
      24       4.692622       0.020000
      25       5.192996       0.020000
      26       5.206081       0.020000
      27       5.696028       0.020000
      28       5.714691       0.020000
      29       6.464893       0.020000
      30       6.478279       0.020000
      31       6.847891       0.020000
      32       6.881822       0.020000
      33       7.677509       0.020000
      34       7.715250       0.020000
      35       7.769058       0.020000
      36       7.791115       0.020000




 ><><><><><><><><><><><><><><><><><><><><><><

    TOTAL-FORCE (eV/Angstrom)

 ><><><><><><><><><><><><><><><><><><><><><><

     atom              x              y              z
      Al1    -0.00045906    -0.00026504    -0.00332946
      Al2    -0.00051624    -0.00029805    -0.00259599
      Al3    -0.00879954    -0.00508042    +0.00325227
      Al4    +0.00419983    +0.00242477    +0.00220934
      Al5    +0.06760158    +0.03902979    +0.00352445
      Al6    -0.06970034    -0.04024151    +0.00489311
      Al7    -0.00222735    -0.00128596    +0.00753915
      Al8    +0.01178399    +0.00680349    +0.00532495
      Al9    -0.00267649    -0.00154527    +0.00694104
     Al10    -0.00274950    -0.00158742    +0.00863237
     Al11    -0.00279610    -0.00161433    +0.00630267
     Al12    +0.01114809    +0.00643635    +0.00661554
     Al13    -0.00187608    -0.00108316    +0.00077319
     Al14    -0.06946143    -0.04010358    +0.00051313
     Al15    +0.06807929    +0.03930560    -0.00594886
     Al16    +0.00432205    +0.00249533    -0.00781435
     Al17    -0.00856532    -0.00494519    -0.01172742
     Al18    -0.00093951    -0.00054243    -0.00889522
     Al19    -0.00085974    -0.00049637    -0.01034424
     Al20    +0.00449188    +0.00259339    -0.00586568


 ><><><><><><><><><><><><><><><><><><><><><><

 TOTAL-STRESS (KBAR)

 ><><><><><><><><><><><><><><><><><><><><><><

      -23.140440      -1.644981      -0.085744
       -1.644981     -21.240979      -0.049504
       -0.085744      -0.049504     +52.511878


 --------------------------------------------
 !FINAL_ETOT_IS -1158.4477151524467899 eV
 --------------------------------------------






  |CLASS_NAME---------|NAME---------------|TIME(Sec)-----|CALLS----|AVG------|PER%-------
                                      total    +2932.13424        17   +172.48   +100.00%
                 Run_pw     plane_wave_line    +2932.12771         1  +2932.13   +100.00%
               PW_Basis  setup_struc_factor       +0.19511        59     +0.00     +0.01%
                Cell_PW        opt_cells_pw    +2932.00920         1  +2932.01   +100.00%
              Potential            init_pot       +0.15199        30     +0.01     +0.01%
                    FFT               FFT3D    +1826.02238  14471040     +0.00    +62.28%
                 Charge          atomic_rho       +4.14619        59     +0.07     +0.14%
              Potential            v_of_rho       +1.83963      1294     +0.00     +0.06%
                H_XC_pw                v_xc       +0.76577      1324     +0.00     +0.03%
           H_Hartree_pw           v_hartree       +1.04990      1294     +0.00     +0.04%
               wavefunc             wfcinit      +66.40209        30     +2.21     +2.26%
                 WF_igk                ekin       +0.44505     40114     +0.00     +0.02%
              WF_atomic          atomic_wfc       +0.22612       930     +0.00     +0.01%
                 WF_igk              get_sk       +0.21094     18600     +0.00     +0.01%
              Hamilt_PW      diagH_subspace     +467.79740     40948     +0.01    +15.95%
              Hamilt_PW               h_psi    +1835.31634   5194358     +0.00    +62.59%
              Hamilt_PW                vloc    +1822.78828   5194358     +0.00    +62.17%
              Hamilt_PW                 vnl       +0.86815   5194358     +0.00     +0.03%
              Hamilt_PW                meta       +0.82445   5194358     +0.00     +0.03%
                 Hamilt        diagH_LAPACK      +17.09379     40948     +0.00     +0.58%
                   Ions         opt_ions_pw    +2929.59484         1  +2929.59    +99.91%
              Electrons     self_consistent    +2857.64658        30    +95.25    +97.46%
               Symmetry        rho_symmetry       +9.36183      1294     +0.01     +0.32%
              Electrons             c_bands    +2160.23709      1264     +1.71    +73.67%
                 Hamilt            diagH_pw    +2152.95110     39184     +0.05    +73.43%
               Diago_CG                diag    +1695.67761     40080     +0.04    +57.83%
                 Charge            sum_band     +574.61875      1264     +0.45    +19.60%
                 Charge             rho_mpi       +9.71441      1264     +0.01     +0.33%
                 Charge             mix_rho       +3.84002      1264     +0.00     +0.13%
                Inverse         using_zheev       +0.12494      1204     +0.00     +0.00%
                 Forces        cal_force_nl    +1465.28426        15    +97.69    +49.97%
              Stress_PW          cal_stress       +1.96633        30     +0.07     +0.07%
            Stress_Func          stress_loc       +1.03888        30     +0.03     +0.04%
 ----------------------------------------------------------------------------------------

 CLASS_NAME---------|NAME---------------|MEMORY(MB)--------
                                         +33.2035
             wavefunc                 evc       +10.8303
 ----------------------------------------------------------

 Start  Time  : Sun Mar 27 16:17:23 2022
 Finish Time  : Sun Mar 27 17:06:22 2022
 Total  Time  : 0 h 48 mins 59 secs 
