 *********************************************************
 *                                                       *
 *                  WELCOME TO ABACUS v3.0               *
 *                                                       *
 *            'Atomic-orbital Based Ab-initio            *
 *                  Computation at UStc'                 *
 *                                                       *
 *          Website: http://abacus.ustc.edu.cn/          *
 *                                                       *
 *********************************************************
 Wed Dec 28 12:18:12 2022
 MAKE THE DIR         : OUT.blpstest/
Notice: symbol 'al_locpsp' is not an element symbol!!!! set the covalent radius to be 0.
 UNIFORM GRID DIM     : 27 * 27 * 27
 UNIFORM GRID DIM(BIG): 27 * 27 * 27
func,idXC_GGA_X_PBE 101
func,idXC_GGA_C_PBE 130
 DONE(0.0994117  SEC) : SETUP UNITCELL
 DONE(0.153447   SEC) : SYMMETRY
 DONE(0.503457   SEC) : INIT K-POINTS
 ---------------------------------------------------------
 Self-consistent calculations for electrons
 ---------------------------------------------------------
 SPIN    KPOINTS         PROCESSORS  
 1       256             1           
 ---------------------------------------------------------
 Use plane wave basis
 ---------------------------------------------------------
 ELEMENT NATOM       XC          
 Al      1           
 ---------------------------------------------------------
 Initial plane wave basis and FFT box
 ---------------------------------------------------------
 DONE(0.564183   SEC) : INIT PLANEWAVE
 MEMORY FOR PSI (MB)  : 53.5547
 DONE(0.576217   SEC) : LOCAL POTENTIAL
 DONE(0.576256   SEC) : NON-LOCAL POTENTIAL
 DONE(0.576332   SEC) : INIT BASIS
 START CHARGE      : atomic
 DONE(0.615786   SEC) : INIT SCF
 ITER   ETOT(eV)       EDIFF(eV)      DRHO       TIME(s)    
 CG1    -5.694184e+01  0.000000e+00   8.236e-02  5.081e+01  
 CG2    -5.718976e+01  -2.479225e-01  6.469e-03  1.701e+01  
 CG3    -5.719619e+01  -6.421767e-03  2.741e-05  2.155e+01  
 CG4    -5.719650e+01  -3.172340e-04  2.413e-06  2.999e+01  
 CG5    -5.719651e+01  -8.031858e-06  7.740e-08  1.855e+01  
 CG6    -5.719651e+01  -1.015987e-07  1.731e-08  2.382e+01  
 CG7    -5.719651e+01  -2.652235e-09  6.269e-10  1.706e+01  

  |CLASS_NAME---------|NAME---------------|TIME(Sec)-----|CALLS----|AVG------|PER%-------
                       total               179.73         17        11        1e+02     %
   Driver              driver_line         179.72         1         1.8e+02   1e+02     %
   ESolver_KS_PW       Run                 178.99         1         1.8e+02   1e+02     %
   Potential           update_from_charge  0.22644        8         0.028     0.13      %
   Potential           cal_v_eff           0.22555        8         0.028     0.13      %
   PotXC               cal_v_eff           0.20765        8         0.026     0.12      %
   XC_Functional       v_xc                107.96         4         27        60        %
   XC_Functional       v_xc_libxc          0.20709        8         0.026     0.12      %
   HSolverPW           solve               178.54         7         26        99        %
   DiagoIterAssist     diagH_subspace      37.128         1792      0.021     21        %
   OperatorPW          hPsi                165.72         100903    0.0016    92        %
   Operator            EkineticPW          0.54804        100903    5.4e-06   0.3       %
   Operator            VeffPW              164.59         100903    0.0016    92        %
   PW_Basis_K          recip2real          83.013         128835    0.00064   46        %
   PW_Basis_K          gathers_scatterp    5.5351         128835    4.3e-05   3.1       %
   PW_Basis_K          real2recip          75.852         125991    0.0006    42        %
   PW_Basis_K          gatherp_scatters    1.4262         125991    1.1e-05   0.79      %
   DiagoIterAssist     LAPACK_subspace     0.35714        1792      0.0002    0.2       %
   DiagoCG             diag_once           137.95         1792      0.077     77        %
   ElecStatePW         psiToRho            2.1202         7         0.3       1.2       %
 ----------------------------------------------------------------------------------------

 START  Time  : Wed Dec 28 12:18:12 2022
 FINISH Time  : Wed Dec 28 12:21:11 2022
 TOTAL  Time  : 1.8e+02
 SEE INFORMATION IN : OUT.blpstest/
