 *********************************************************
 *                                                       *
 *                  WELCOME TO ABACUS v3.0               *
 *                                                       *
 *            'Atomic-orbital Based Ab-initio            *
 *                  Computation at UStc'                 *
 *                                                       *
 *          Website: http://abacus.ustc.edu.cn/          *
 *                                                       *
 *********************************************************
 Wed May  3 01:05:26 2023
 MAKE THE DIR         : OUT.oftest/
Notice: symbol 'mg_locpsp' is not an element symbol!!!! set the covalent radius to be 0.
 UNIFORM GRID DIM     : 36 * 36 * 36
 UNIFORM GRID DIM(BIG): 36 * 36 * 36
func,idXC_GGA_X_PBE 101
func,idXC_GGA_C_PBE 130
 DONE(0.233944   SEC) : SETUP UNITCELL
 DONE(0.289384   SEC) : SYMMETRY
 DONE(0.289587   SEC) : INIT K-POINTS
 ---------------------------------------------------------
 Self-consistent calculations for electrons
 ---------------------------------------------------------
 SPIN    KPOINTS         PROCESSORS  
 1       1               1           
 ---------------------------------------------------------
 Use plane wave basis
 ---------------------------------------------------------
 ELEMENT NATOM       XC          
 Mg      1           
 ---------------------------------------------------------
 Initial plane wave basis and FFT box
 ---------------------------------------------------------
 DONE(0.292178   SEC) : INIT BASIS
 DONE(0.292204   SEC) : INIT PHI
 DONE(0.374861   SEC) : LOCAL POTENTIAL
 DONE(0.374894   SEC) : NON-LOCAL POTENTIAL
 START CHARGE      : atomic
 DONE(0.548702   SEC) : INIT POTENTIAL
 DONE(0.548943   SEC) : INIT OPTIMIZATION
Default type: double
nnode = 10
nlayer = 3
feg_net_F = 0.540933
 DONE(0.608398   SEC) : INIT KEDF
======================== Running OFDFT ========================
Iter        Etot(Ha)          Theta      PotNorm     deltaE(Ha)
0     -8.430344414701e-01   2.000e-01   1.156e-01   -8.430e-01  
1     -8.865490188937e-01   9.229e-02   1.123e-01   -4.351e-02  
2     -8.878417762581e-01   8.894e-03   6.596e-02   -1.293e-03  
3     -8.892882933536e-01   2.514e-02   2.213e-02   -1.447e-03  
4     -8.893591782364e-01   1.817e-03   1.355e-02   -7.088e-05  
5     -8.893798219364e-01   8.453e-04   8.840e-03   -2.064e-05  
6     -8.894159495487e-01   3.342e-03   3.782e-03   -3.613e-05  
7     -8.894205248224e-01   1.051e-03   1.071e-03   -4.575e-06  
8     -8.894215577126e-01   7.117e-04   1.642e-04   -1.033e-06  
9     -8.894215625753e-01   2.450e-05   1.397e-05   -4.863e-09  
10    -8.894215626286e-01   3.065e-06   7.662e-06   -5.325e-11  

  |CLASS_NAME---------|NAME---------------|TIME(Sec)-----|CALLS----|AVG------|PER%-------
                       total               553.69         21        26        1e+02     %
   Driver              driver_line         553.68         1         5.5e+02   1e+02     %
   PW_Basis            setuptransform      0.20656        1         0.21      0.037     %
   PW_Basis            recip2real          11.974         5928      0.002     2.2       %
   PW_Basis            gathers_scatterp    1.0165         5928      0.00017   0.18      %
   Potential           update_from_charge  17.513         297       0.059     3.2       %
   Potential           cal_v_eff           17.509         297       0.059     3.2       %
   H_Hartree_pw        v_hartree           1.3615         297       0.0046    0.25      %
   PW_Basis            real2recip          11.365         5928      0.0019    2.1       %
   PW_Basis            gatherp_scatters    0.64194        5928      0.00011   0.12      %
   PotXC               cal_v_eff           16.097         297       0.054     2.9       %
   XC_Functional       v_xc                275.44         149       1.8       50        %
   XC_Functional       v_xc_libxc          16.069         297       0.054     2.9       %
   ESolver_OF          Run                 553.08         1         5.5e+02   1e+02     %
   KEDF_vW             vw_potential        1.3346         296       0.0045    0.24      %
 ----------------------------------------------------------------------------------------

 START  Time  : Wed May  3 01:05:26 2023
 FINISH Time  : Wed May  3 01:14:39 2023
 TOTAL  Time  : 5.5e+02
 SEE INFORMATION IN : OUT.oftest/
