 *********************************************************
 *                                                       *
 *                  WELCOME TO ABACUS v3.0               *
 *                                                       *
 *            'Atomic-orbital Based Ab-initio            *
 *                  Computation at UStc'                 *
 *                                                       *
 *          Website: http://abacus.ustc.edu.cn/          *
 *                                                       *
 *********************************************************
 Mon Jul 24 14:10:10 2023
 MAKE THE DIR         : OUT.blpstest/
Notice: symbol 'Ga_locpsp' is not an element symbol!!!! set the covalent radius to be 0.
Notice: symbol 'P_locpsp' is not an element symbol!!!! set the covalent radius to be 0.
 UNIFORM GRID DIM     : 40 * 40 * 40
 UNIFORM GRID DIM(BIG): 40 * 40 * 40
func,idXC_GGA_X_PBE 101
func,idXC_GGA_C_PBE 130
 DONE(0.251589   SEC) : SETUP UNITCELL
 DONE(0.313079   SEC) : SYMMETRY
 DONE(0.667827   SEC) : INIT K-POINTS
 ---------------------------------------------------------
 Self-consistent calculations for electrons
 ---------------------------------------------------------
 SPIN    KPOINTS         PROCESSORS  
 1       256             1           
 ---------------------------------------------------------
 Use plane wave basis
 ---------------------------------------------------------
 ELEMENT NATOM       XC          
 Ga      1           
 P       1           
 ---------------------------------------------------------
 Initial plane wave basis and FFT box
 ---------------------------------------------------------
 DONE(0.828723   SEC) : INIT PLANEWAVE
 MEMORY FOR PSI (MB)  : 77.3438
 DONE(0.882988   SEC) : LOCAL POTENTIAL
 DONE(0.883056   SEC) : NON-LOCAL POTENTIAL
 DONE(0.883162   SEC) : INIT BASIS
 START CHARGE      : atomic
 DONE(1.08599    SEC) : INIT SCF
 ITER   ETOT(eV)       EDIFF(eV)      DRHO       TIME(s)    
 CG1    -2.344105e+02  0.000000e+00   2.906e+00  1.613e+02  
 CG2    -2.422720e+02  -7.861507e+00  2.641e-01  9.635e+01  
 CG3    -2.431240e+02  -8.519936e-01  1.322e-02  1.199e+02  
 CG4    -2.431477e+02  -2.366749e-02  2.959e-04  1.257e+02  
 CG5    -2.431498e+02  -2.141917e-03  2.745e-05  1.614e+02  
 CG6    -2.431499e+02  -8.010758e-05  1.219e-06  1.219e+02  
 CG7    -2.431499e+02  -3.232978e-06  3.168e-09  1.036e+02  
 CG8    -2.431499e+02  -9.830413e-08  1.960e-09  1.529e+02  
 CG9    -2.431499e+02  -3.356435e-09  4.779e-11  7.753e+01  

  |CLASS_NAME---------|NAME---------------|TIME(Sec)-----|CALLS----|AVG------|PER%-------
                       total               1121.7         17        66        1e+02     %
   Driver              driver_line         1121.7         1         1.1e+03   1e+02     %
   PW_Basis            setuptransform      0.23045        1         0.23      0.021     %
   PW_Basis_K          setuptransform      0.11568        1         0.12      0.01      %
   ESolver_KS_PW       Run                 1120.8         1         1.1e+03   1e+02     %
   PW_Basis            recip2real          0.4094         62        0.0066    0.036     %
   Potential           init_pot            0.14644        1         0.15      0.013     %
   Potential           update_from_charge  2.3833         10        0.24      0.21      %
   Potential           cal_v_eff           2.3789         10        0.24      0.21      %
   H_Hartree_pw        v_hartree           0.2019         10        0.02      0.018     %
   PW_Basis            real2recip          0.78709        98        0.008     0.07      %
   PotXC               cal_v_eff           2.1644         10        0.22      0.19      %
   XC_Functional       v_xc                623.95         5         1.2e+02   56        %
   XC_Functional       v_xc_libxc          2.1449         10        0.21      0.19      %
   Symmetry            rho_symmetry        0.11358        10        0.011     0.01      %
   HSolverPW           solve               1117.7         9         1.2e+02   1e+02     %
   WF_atomic           atomic_wfc          0.10347        256       0.0004    0.0092    %
   DiagoIterAssist     diagH_subspace      228.58         2304      0.099     20        %
   OperatorPW          hPsi                1015.9         78322     0.013     91        %
   Operator            EkineticPW          4.039          78322     5.2e-05   0.36      %
   Operator            VeffPW              1009.9         78322     0.013     90        %
   PW_Basis_K          recip2real          465.65         105970    0.0044    42        %
   PW_Basis_K          gathers_scatterp    73.004         105970    0.00069   6.5       %
   PW_Basis_K          real2recip          456.81         96754     0.0047    41        %
   PW_Basis_K          gatherp_scatters    19.152         96754     0.0002    1.7       %
   Operator            NonlocalPW          0.24607        78322     3.1e-06   0.022     %
   DiagoIterAssist     LAPACK_subspace     0.78856        2304      0.00034   0.07      %
   DiagoCG             diag_once           832.51         2304      0.36      74        %
   ElecStatePW         psiToRho            54.65          9         6.1       4.9       %
   Charge              mix_rho             0.34505        8         0.043     0.031     %
 ----------------------------------------------------------------------------------------

 START  Time  : Mon Jul 24 14:10:10 2023
 FINISH Time  : Mon Jul 24 14:28:52 2023
 TOTAL  Time  : 1.1e+03
 SEE INFORMATION IN : OUT.blpstest/
