                                                                                     
                             WELCOME TO ABACUS                                       
                                                                                     
               'Atomic-orbital Based Ab-initio Computation at UStc'                  
                                                                                     
                     Website: http://abacus.ustc.edu.cn/                             
                                                                                     
    Version: Parallel, in development
    Processor Number is 16
    Start Time is Wed Mar 30 19:30:41 2022
                                                                                     
 ------------------------------------------------------------------------------------

 READING GENERAL INFORMATION
                           global_out_dir = OUT.stack/
                           global_in_card = INPUT
                               pseudo_dir = 
                              orbital_dir = 
                              pseudo_type = auto
                                    DRANK = 1
                                    DSIZE = 16
                                   DCOLOR = 1
                                    GRANK = 1
                                    GSIZE = 1




 >>>>>>>>>>>>>>>>>>>>>>>>>>>>>>>>>>>>>>>>>>>>>>>>>>>>>>>>>>>>>>>>>>>>>>
 |                                                                    |
 | Reading atom information in unitcell:                              |
 | From the input file and the structure file we know the number of   |
 | different elments in this unitcell, then we list the detail        |
 | information for each element, especially the zeta and polar atomic |
 | orbital number for each element. The total atom number is counted. |
 | We calculate the nearest atom distance for each atom and show the  |
 | Cartesian and Direct coordinates for each atom. We list the file   |
 | address for atomic orbitals. The volume and the lattice vectors    |
 | in real and reciprocal space is also shown.                        |
 |                                                                    |
 <<<<<<<<<<<<<<<<<<<<<<<<<<<<<<<<<<<<<<<<<<<<<<<<<<<<<<<<<<<<<<<<<<<<<<




 READING UNITCELL INFORMATION
                                    ntype = 1
                 atom label for species 1 = Al
                  lattice constant (Bohr) = 7.49843
              lattice constant (Angstrom) = 3.968

 READING ATOM TYPE 1
                               atom label = Al
                      L=0, number of zeta = 1
                      L=1, number of zeta = 1
                      L=2, number of zeta = 1
             number of atom for this type = 20
                      start magnetization = FALSE
                      start magnetization = FALSE
                      start magnetization = FALSE
                      start magnetization = FALSE
                      start magnetization = FALSE
                      start magnetization = FALSE
                      start magnetization = FALSE
                      start magnetization = FALSE
                      start magnetization = FALSE
                      start magnetization = FALSE
                      start magnetization = FALSE
                      start magnetization = FALSE
                      start magnetization = FALSE
                      start magnetization = FALSE
                      start magnetization = FALSE
                      start magnetization = FALSE
                      start magnetization = FALSE
                      start magnetization = FALSE
                      start magnetization = FALSE
                      start magnetization = FALSE

                        TOTAL ATOM NUMBER = 20

 DIRECT COORDINATES
         atom                   x                   y                   z                 mag                  vx                  vy                  vz
     taud_Al1                   0                   0          9.5624e-05                   0                   0                   0                   0
     taud_Al2            0.333333            0.333333            0.049712                   0                   0                   0                   0
     taud_Al3            0.666667            0.666667           0.0996942                   0                   0                   0                   0
     taud_Al4                   0                   0            0.149456                   0                   0                   0                   0
     taud_Al5            0.333333            0.333333            0.199334                   0                   0                   0                   0
     taud_Al6            0.833333            0.833333             0.25073                   0                   0                   0                   0
     taud_Al7            0.166667            0.166667            0.300537                   0                   0                   0                   0
     taud_Al8                 0.5                 0.5            0.350406                   0                   0                   0                   0
     taud_Al9            0.833333            0.833333            0.399986                   0                   0                   0                   0
    taud_Al10            0.166667            0.166667                0.45                   0                   0                   0                   0
    taud_Al11            0.833333            0.833333            0.500014                   0                   0                   0                   0
    taud_Al12                 0.5                 0.5            0.549594                   0                   0                   0                   0
    taud_Al13            0.166667            0.166667            0.599463                   0                   0                   0                   0
    taud_Al14            0.833333            0.833333             0.64927                   0                   0                   0                   0
    taud_Al15            0.333333            0.333333            0.700666                   0                   0                   0                   0
    taud_Al16                   0                   0            0.750544                   0                   0                   0                   0
    taud_Al17            0.666667            0.666667            0.800306                   0                   0                   0                   0
    taud_Al18            0.333333            0.333333            0.850288                   0                   0                   0                   0
    taud_Al19                   0                   0            0.899904                   0                   0                   0                   0
    taud_Al20            0.666667            0.666667                0.95                   0                   0                   0                   0


                          Volume (Bohr^3) = 2108.05
                             Volume (A^3) = 312.381

 Lattice vectors: (Cartesian coordinate: in unit of a_0)
            +0.707107                  +0                  +0
            +0.353553           +0.612372                  +0
                   +0                  +0             +11.547
 Reciprocal vectors: (Cartesian coordinate: in unit of 2 pi/a_0)
             +1.41421           -0.816497                  +0
                   +0            +1.63299                  -0
                   +0                  -0          +0.0866025




 >>>>>>>>>>>>>>>>>>>>>>>>>>>>>>>>>>>>>>>>>>>>>>>>>>>>>>>>>>>>>>>>>>>>>>
 |                                                                    |
 | Reading pseudopotentials files:                                    |
 | The pseudopotential file is in UPF format. The 'NC' indicates that |
 | the type of pseudopotential is 'norm conserving'. Functional of    |
 | exchange and correlation is decided by 4 given parameters in UPF   |
 | file.  We also read in the 'core correction' if there exists.      |
 | Also we can read the valence electrons number and the maximal      |
 | angular momentum used in this pseudopotential. We also read in the |
 | trail wave function, trail atomic density and local-pseudopotential|
 | on logrithmic grid. The non-local pseudopotential projector is also|
 | read in if there is any.                                           |
 |                                                                    |
 <<<<<<<<<<<<<<<<<<<<<<<<<<<<<<<<<<<<<<<<<<<<<<<<<<<<<<<<<<<<<<<<<<<<<<




                PAO radial cut off (Bohr) = 15

 Read in pseudopotential file is Al_ONCV_PBE-1.2.upf
                     pseudopotential type = NC
                            functional Ex = PBE
                            functional Ec = 
                          functional GCEx = 
                          functional GCEc = 
                 nonlocal core correction = 0
                        valence electrons = 11
                                     lmax = 1
                           number of zeta = 0
                     number of projectors = 4
                           L of projector = 0
                           L of projector = 0
                           L of projector = 1
                           L of projector = 1
     initial pseudo atomic orbital number = 0
                                   NLOCAL = 180

 SETUP THE ELECTRONS NUMBER
            electron number of element Al = 11
      total electron number of element Al = 220
                           occupied bands = 110
                                   NBANDS = 130
 DONE : SETUP UNITCELL Time : 0.0115672 (SEC)





 >>>>>>>>>>>>>>>>>>>>>>>>>>>>>>>>>>>>>>>>>>>>>>>>>>>>>>>>>>>>>>>>>>>>>>
 |                                                                    |
 | Doing symmetry analysis:                                           |
 | We calculate the norm of 3 vectors and the angles between them,    |
 | the type of Bravais lattice is given. We can judge if the unticell |
 | is a primitive cell. Finally we give the point group operation for |
 | this unitcell. We we use the point group operations to do symmetry |
 | analysis on given k-point mesh and the charge density.             |
 |                                                                    |
 <<<<<<<<<<<<<<<<<<<<<<<<<<<<<<<<<<<<<<<<<<<<<<<<<<<<<<<<<<<<<<<<<<<<<<




 LATTICE VECTORS: (CARTESIAN COORDINATE: IN UNIT OF A0)
            +0.707107                  +0                  +0
            +0.353553           +0.612372                  +0
                   +0                  +0             +11.547
                       right hand lattice = 1
                                   NORM_A = 0.707107
                                   NORM_B = 0.707107
                                   NORM_C = 11.547
                           ALPHA (DEGREE) = 60
                           BETA  (DEGREE) = 90
                           GAMMA (DEGREE) = 90
                             BRAVAIS TYPE = 4
                     BRAVAIS LATTICE NAME = 04. Hexagonal cell
 STANDARD LATTICE VECTORS: (CARTESIAN COORDINATE: IN UNIT OF A0)
            +0.707107                  +0                  +0
            +0.353553           +0.612372                  +0
                   +0                  +0             +11.547
                                    IBRAV = 4
                                  BRAVAIS = HEXAGONAL CELL
                       LATTICE CONSTANT A = 34.7347
                                C/A RATIO = 0.667046
                                    ibrav = 4
                        ROTATION MATRICES = 24
              PURE POINT GROUP OPERATIONS = 2
                   SPACE GROUP OPERATIONS = 2
                                       C2 = 0
                                       C3 = 0
                                       C4 = 0
                                       C6 = 0
                                       S1 = 1
                                       S3 = 0
                                       S4 = 0
                                       S6 = 0
                              POINT GROUP = C_1h
 DONE : SYMMETRY Time : 0.0454256 (SEC)





 >>>>>>>>>>>>>>>>>>>>>>>>>>>>>>>>>>>>>>>>>>>>>>>>>>>>>>>>>>>>>>>>>>>>>>
 |                                                                    |
 | Setup K-points                                                     |
 | We setup the k-points according to input parameters.               |
 | The reduced k-points are set according to symmetry operations.     |
 | We treat the spin as another set of k-points.                      |
 |                                                                    |
 <<<<<<<<<<<<<<<<<<<<<<<<<<<<<<<<<<<<<<<<<<<<<<<<<<<<<<<<<<<<<<<<<<<<<<





 SETUP K-POINTS
                                    nspin = 1
                   Input type of k points = Monkhorst-Pack(Gamma)
                                   nkstot = 100
                               nkstot_ibz = 31
      IBZ             DirectX             DirectY             DirectZ              Weight    ibz2bz
        1                   0                   0                 0.5                0.01         0
        2                   0                 0.9                 0.5                0.04         1
        3                 0.8                   0                 0.5                0.04         2
        4                   0                 0.7                 0.5                0.04         3
        5                 0.6                   0                 0.5                0.04         4
        6                   0                 0.5                 0.5                0.02         5
        7                 0.9                 0.9                 0.5                0.02        11
        8                 0.9                 0.8                 0.5                0.04        12
        9                 0.9                 0.7                 0.5                0.04        13
       10                 0.9                 0.6                 0.5                0.04        14
       11                 0.9                 0.5                 0.5                0.04        15
       12                 0.9                 0.4                 0.5                0.04        16
       13                 0.9                 0.3                 0.5                0.04        17
       14                 0.9                 0.2                 0.5                0.04        18
       15                 0.9                 0.1                 0.5                0.02        19
       16                 0.8                 0.8                 0.5                0.02        22
       17                 0.8                 0.7                 0.5                0.04        23
       18                 0.8                 0.6                 0.5                0.04        24
       19                 0.8                 0.5                 0.5                0.04        25
       20                 0.8                 0.4                 0.5                0.04        26
       21                 0.8                 0.3                 0.5                0.04        27
       22                 0.2                 0.8                 0.5                0.02        28
       23                 0.7                 0.7                 0.5                0.02        33
       24                 0.7                 0.6                 0.5                0.04        34
       25                 0.7                 0.5                 0.5                0.04        35
       26                 0.7                 0.4                 0.5                0.04        36
       27                 0.7                 0.3                 0.5                0.02        37
       28                 0.6                 0.6                 0.5                0.02        44
       29                 0.6                 0.5                 0.5                0.04        45
       30                 0.4                 0.6                 0.5                0.02        46
       31                 0.5                 0.5                 0.5                0.01        55
                               nkstot now = 31

  KPOINTS            DIRECT_X            DIRECT_Y            DIRECT_Z              WEIGHT
        1                   0                   0                 0.5                0.01
        2                   0                 0.9                 0.5                0.04
        3                 0.8                   0                 0.5                0.04
        4                   0                 0.7                 0.5                0.04
        5                 0.6                   0                 0.5                0.04
        6                   0                 0.5                 0.5                0.02
        7                 0.9                 0.9                 0.5                0.02
        8                 0.9                 0.8                 0.5                0.04
        9                 0.9                 0.7                 0.5                0.04
       10                 0.9                 0.6                 0.5                0.04
       11                 0.9                 0.5                 0.5                0.04
       12                 0.9                 0.4                 0.5                0.04
       13                 0.9                 0.3                 0.5                0.04
       14                 0.9                 0.2                 0.5                0.04
       15                 0.9                 0.1                 0.5                0.02
       16                 0.8                 0.8                 0.5                0.02
       17                 0.8                 0.7                 0.5                0.04
       18                 0.8                 0.6                 0.5                0.04
       19                 0.8                 0.5                 0.5                0.04
       20                 0.8                 0.4                 0.5                0.04
       21                 0.8                 0.3                 0.5                0.04
       22                 0.2                 0.8                 0.5                0.02
       23                 0.7                 0.7                 0.5                0.02
       24                 0.7                 0.6                 0.5                0.04
       25                 0.7                 0.5                 0.5                0.04
       26                 0.7                 0.4                 0.5                0.04
       27                 0.7                 0.3                 0.5                0.02
       28                 0.6                 0.6                 0.5                0.02
       29                 0.6                 0.5                 0.5                0.04
       30                 0.4                 0.6                 0.5                0.02
       31                 0.5                 0.5                 0.5                0.01

           k-point number in this process = 31
       minimum distributed K point number = 31

  KPOINTS         CARTESIAN_X         CARTESIAN_Y         CARTESIAN_Z              WEIGHT
        1                   0                   0           0.0433013                0.02
        2                   0             1.46969           0.0433013                0.08
        3             1.13137           -0.653197           0.0433013                0.08
        4                   0              1.1431           0.0433013                0.08
        5            0.848528           -0.489898           0.0433013                0.08
        6                   0            0.816497           0.0433013                0.04
        7             1.27279            0.734847           0.0433013                0.04
        8             1.27279            0.571548           0.0433013                0.08
        9             1.27279            0.408248           0.0433013                0.08
       10             1.27279            0.244949           0.0433013                0.08
       11             1.27279           0.0816497           0.0433013                0.08
       12             1.27279          -0.0816497           0.0433013                0.08
       13             1.27279           -0.244949           0.0433013                0.08
       14             1.27279           -0.408248           0.0433013                0.08
       15             1.27279           -0.571548           0.0433013                0.04
       16             1.13137            0.653197           0.0433013                0.04
       17             1.13137            0.489898           0.0433013                0.08
       18             1.13137            0.326599           0.0433013                0.08
       19             1.13137            0.163299           0.0433013                0.08
       20             1.13137                   0           0.0433013                0.08
       21             1.13137           -0.163299           0.0433013                0.08
       22            0.282843              1.1431           0.0433013                0.04
       23            0.989949            0.571548           0.0433013                0.04
       24            0.989949            0.408248           0.0433013                0.08
       25            0.989949            0.244949           0.0433013                0.08
       26            0.989949           0.0816497           0.0433013                0.08
       27            0.989949          -0.0816497           0.0433013                0.04
       28            0.848528            0.489898           0.0433013                0.04
       29            0.848528            0.326599           0.0433013                0.08
       30            0.565685            0.653197           0.0433013                0.04
       31            0.707107            0.408248           0.0433013                0.02

  KPOINTS            DIRECT_X            DIRECT_Y            DIRECT_Z              WEIGHT
        1                   0                   0                 0.5                0.02
        2                   0                 0.9                 0.5                0.08
        3                 0.8                   0                 0.5                0.08
        4                   0                 0.7                 0.5                0.08
        5                 0.6                   0                 0.5                0.08
        6                   0                 0.5                 0.5                0.04
        7                 0.9                 0.9                 0.5                0.04
        8                 0.9                 0.8                 0.5                0.08
        9                 0.9                 0.7                 0.5                0.08
       10                 0.9                 0.6                 0.5                0.08
       11                 0.9                 0.5                 0.5                0.08
       12                 0.9                 0.4                 0.5                0.08
       13                 0.9                 0.3                 0.5                0.08
       14                 0.9                 0.2                 0.5                0.08
       15                 0.9                 0.1                 0.5                0.04
       16                 0.8                 0.8                 0.5                0.04
       17                 0.8                 0.7                 0.5                0.08
       18                 0.8                 0.6                 0.5                0.08
       19                 0.8                 0.5                 0.5                0.08
       20                 0.8                 0.4                 0.5                0.08
       21                 0.8                 0.3                 0.5                0.08
       22                 0.2                 0.8                 0.5                0.04
       23                 0.7                 0.7                 0.5                0.04
       24                 0.7                 0.6                 0.5                0.08
       25                 0.7                 0.5                 0.5                0.08
       26                 0.7                 0.4                 0.5                0.08
       27                 0.7                 0.3                 0.5                0.04
       28                 0.6                 0.6                 0.5                0.04
       29                 0.6                 0.5                 0.5                0.08
       30                 0.4                 0.6                 0.5                0.04
       31                 0.5                 0.5                 0.5                0.02
 DONE : INIT K-POINTS Time : 0.0459974 (SEC)





 >>>>>>>>>>>>>>>>>>>>>>>>>>>>>>>>>>>>>>>>>>>>>>>>>>>>>>>>>>>>>>>>>>>>>>
 |                                                                    |
 | Setup plane waves:                                                 |
 | Use the energy cutoff and the lattice vectors to generate the      |
 | dimensions of FFT grid. The number of FFT grid on each processor   |
 | is 'nrxx'. The number of plane wave basis in reciprocal space is   |
 | different for charege/potential and wave functions. We also set    |
 | the 'sticks' for the parallel of FFT.                              |
 |                                                                    |
 <<<<<<<<<<<<<<<<<<<<<<<<<<<<<<<<<<<<<<<<<<<<<<<<<<<<<<<<<<<<<<<<<<<<<<





 SETUP THE PLANE WAVE BASIS
     energy cutoff for wavefunc (unit:Ry) = 40
            [fft grid for wave functions] = 24, 24, 360
          [fft grid for charge/potential] = 24, 24, 360
                      [fft grid division] = 1, 1, 1
      [big fft grid for charge/potential] = 24, 24, 360
                                     nbxx = 13248
                                     nrxx = 13248

 SETUP PLANE WAVES FOR CHARGE/POTENTIAL
                    number of plane waves = 72325
                         number of sticks = 313

 SETUP PLANE WAVES FOR WAVE FUNCTIONS
                    number of plane waves = 15353
                         number of sticks = 109

 PARALLEL PW FOR CHARGE/POTENTIAL
     PROC   COLUMNS(POT)             PW
        1             20           4516
        2             19           4503
        3             19           4503
        4             19           4503
        5             20           4546
        6             19           4503
        7             20           4514
        8             20           4514
        9             20           4546
       10             20           4546
       11             19           4503
       12             20           4546
       13             19           4503
       14             20           4536
       15             19           4501
       16             20           4542
 --------------- sum -------------------
       16            313          72325

 PARALLEL PW FOR WAVE FUNCTIONS
     PROC     COLUMNS(W)             PW
        1              7            969
        2              7            969
        3              7            969
        4              7            969
        5              7            969
        6              6            936
        7              7            967
        8              7            955
        9              7            955
       10              7            985
       11              7            985
       12              6            926
       13              6            934
       14              7            963
       15              7            951
       16              7            951
 --------------- sum -------------------
       16            109          15353

 SETUP COORDINATES OF PLANE WAVES
              number of total plane waves = 72325

 SETUP COORDINATES OF PLANE WAVES
                            number of |g| = 2142
                                  max |g| = 227.874
                                  min |g| = 0
 DONE : INIT PLANEWAVE Time : 0.0850603 (SEC)

                                     npwx = 634

 SETUP NONLOCAL PSEUDOPOTENTIALS IN PLANE WAVE BASIS
 Al non-local projectors:
 projector 1 L=0
 projector 2 L=0
 projector 3 L=1
 projector 4 L=1
      TOTAL NUMBER OF NONLOCAL PROJECTORS = 160
 DONE : LOCAL POTENTIAL Time : 0.148735 (SEC)


 Init Non-Local PseudoPotential table : 
 Init Non-Local-Pseudopotential done.
 DONE : NON-LOCAL POTENTIAL Time : 0.160738 (SEC)

                                start_pot = atomic
 DONE : INIT POTENTIAL Time : 0.199819 (SEC)


 Make real space PAO into reciprocal space.
       max mesh points in Pseudopotential = 601
     dq(describe PAO in reciprocal space) = 0.01
                                    max q = 764

 number of pseudo atomic orbitals for Al is 0
 DONE : INIT BASIS Time : 9.21607 (SEC)


 -------------------------------------------
 SELF-CONSISTENT
 -------------------------------------------

 PW ALGORITHM --------------- ION=   1  ELEC=   1--------------------------------
  K-point    CG iter num      Time(Sec)
        1       8.430769       1.839336
        2       8.623077       1.930852
        3       8.746154       1.961407
        4       8.707692       1.914420
        5       8.753846       1.968575
        6       8.561538       1.961155
        7       8.715385       1.996808
        8       8.492308       1.912249
        9       8.546154       1.930332
       10       8.676923       1.987330
       11       8.753846       1.980322
       12       8.646154       1.951533
       13       8.707692       1.989582
       14       8.630769       1.939591
       15       8.592308       1.951944
       16       8.684615       1.993475
       17       8.607692       2.017992
       18       8.569231       1.951482
       19       8.592308       2.029381
       20       8.553846       1.935452
       21       8.715385       2.002372
       22       8.592308       1.888569
       23       8.653846       1.955633
       24       8.523077       1.937154
       25       8.738462       1.956943
       26       8.423077       1.904874
       27       8.453846       1.889066
       28       8.684615       1.952754
       29       8.669231       1.970618
       30       8.661538       1.920518
       31       8.630769       1.959698
 Notice: Threshold on eigenvalues was too large.
 dr2=0.408395 < diago_error=2.200000
 Origin ETHR = 0.010000
 New    ETHR = 0.000186
  K-point    CG iter num      Time(Sec)
        1       5.884615       1.573691
        2       5.838462       1.496468
        3       5.792308       1.506379
        4       5.669231       1.461506
        5       5.892308       1.502881
        6       5.830769       1.492994
        7       5.761538       1.525699
        8       6.761538       1.836682
        9       6.346154       1.655977
       10       5.961538       1.568202
       11       6.630769       1.730606
       12       6.676923       1.697873
       13       6.369231       1.702099
       14       6.146154       1.605072
       15       6.330769       1.691014
       16       5.930769       1.586825
       17       6.146154       1.595773
       18       6.653846       1.919155
       19       6.561538       1.702989
       20       7.115385       1.961268
       21       7.576923       2.040892
       22       6.892308       1.939533
       23       5.738462       1.594916
       24       6.384615       1.690447
       25       6.892308       1.900221
       26       8.153846       2.152814
       27       7.923077       2.149370
       28       6.123077       1.624550
       29       6.692308       1.830027
       30       7.269231       2.051878
       31       6.184615       1.698372

 Density error is 0.430105607975
                          Error Threshold = 0.000185633870

       Energy                       Rydberg                            eV
   E_KohnSham            -2767.236985679411           -37650.190721584389
     E_Harris            -2767.293930299210           -37650.965492884105
      E_Fermi               +0.872897264010              +11.876376559145

 PW ALGORITHM --------------- ION=   1  ELEC=   2--------------------------------
  K-point    CG iter num      Time(Sec)
        1       2.292308       0.560769
        2       2.092308       0.491339
        3       2.015385       0.489116
        4       2.000000       0.456236
        5       2.000000       0.502675
        6       2.015385       0.452093
        7       2.146154       0.517085
        8       2.000000       0.468618
        9       2.000000       0.435070
       10       2.023077       0.476628
       11       2.015385       0.469905
       12       2.000000       0.466093
       13       2.100000       0.510287
       14       2.023077       0.442366
       15       2.184615       0.554678
       16       2.015385       0.497950
       17       2.000000       0.557395
       18       2.046154       0.574124
       19       2.061538       0.561918
       20       2.023077       0.555472
       21       2.015385       0.546963
       22       2.076923       0.544643
       23       2.015385       0.532663
       24       2.069231       0.598107
       25       2.046154       0.540675
       26       2.100000       0.583491
       27       2.030769       0.520687
       28       2.030769       0.532806
       29       2.046154       0.530503
       30       2.046154       0.535362
       31       2.000000       0.521691

 Density error is 1.006993184918
                          Error Threshold = 0.000195502549

       Energy                       Rydberg                            eV
   E_KohnSham            -2766.439817036178           -37639.344685769494
     E_Harris            -2767.249066486179           -37650.355089392877
      E_Fermi               +0.871487693504              +11.857198368535

 PW ALGORITHM --------------- ION=   1  ELEC=   3--------------------------------
  K-point    CG iter num      Time(Sec)
        1       9.823077       2.582106
        2      10.107692       2.582675
        3      10.338462       2.685997
        4       9.769231       2.503007
        5       9.800000       2.561070
        6       9.461538       2.444765
        7      10.353846       2.736679
        8      10.638462       2.791494
        9       9.838462       2.584265
       10       9.923077       2.618856
       11       9.823077       2.599017
       12       9.992308       2.648917
       13      10.146154       2.643749
       14       9.769231       2.553914
       15      10.415385       2.737999
       16      10.384615       2.783241
       17       9.938462       2.622228
       18      10.184615       2.676703
       19       9.584615       2.502561
       20       9.876923       2.597034
       21      10.000000       2.713912
       22       9.684615       2.461459
       23      10.238462       2.697842
       24       9.984615       2.651132
       25       9.607692       2.663992
       26      10.107692       2.905516
       27       9.684615       2.679131
       28       9.992308       2.619880
       29       9.907692       2.591405
       30       9.430769       2.433638
       31       9.969231       2.588792

 Density error is 6259.842980480565
                          Error Threshold = 0.000195502549

       Energy                       Rydberg                            eV
   E_KohnSham            -2730.823087669182           -37154.754222254422
     E_Harris            -2820.584763714981           -38376.024478507388
      E_Fermi               +0.300800765733               +4.092604376733

 PW ALGORITHM --------------- ION=   1  ELEC=   4--------------------------------
  K-point    CG iter num      Time(Sec)
        1       9.738462       2.497870
        2       9.930769       2.532472
        3       9.692308       2.495421
        4      10.100000       2.593446
        5       9.876923       2.599791
        6       9.653846       2.526472
        7      10.007692       2.694528
        8       9.369231       2.490622
        9       9.730769       2.533910
       10      10.146154       3.001958
       11      10.438462       3.028427
       12      10.000000       2.869727
       13      10.292308       2.954184
       14       9.676923       2.525417
       15       9.523077       2.458344
       16      10.076923       2.616983
       17      10.053846       2.612615
       18       9.907692       2.534293
       19      10.215385       2.623346
       20      10.646154       2.737382
       21      10.330769       2.646039
       22      10.369231       2.658614
       23       9.953846       2.713581
       24       9.823077       2.564300
       25       9.984615       2.613927
       26      10.246154       2.645929
       27      10.161538       2.709832
       28       9.938462       2.545943
       29      10.230769       2.788545
       30      10.384615       2.909894
       31       9.500000       2.678685

 Density error is 629.580453616238
                          Error Threshold = 0.000195502549

       Energy                       Rydberg                            eV
   E_KohnSham            -2758.957345246835           -37537.540434310169
     E_Harris            -2770.590217321099           -37695.813778625241
      E_Fermi               +0.843824398816              +11.480819935328

 PW ALGORITHM --------------- ION=   1  ELEC=   5--------------------------------
  K-point    CG iter num      Time(Sec)
        1       6.084615       1.693657
        2       6.476923       1.702898
        3       6.738462       1.836216
        4       7.553846       2.041243
        5       7.930769       2.072461
        6       7.946154       2.106941
        7       6.392308       1.724871
        8       6.376923       1.729301
        9       7.123077       1.902005
       10       7.692308       2.018464
       11       7.900000       2.107788
       12       8.307692       2.217066
       13       7.830769       2.057003
       14       6.776923       1.811003
       15       6.469231       1.738260
       16       6.846154       1.852116
       17       7.300000       1.951657
       18       8.192308       2.167897
       19       8.638462       2.252220
       20       9.130769       2.408050
       21       8.961538       2.371055
       22       8.238462       2.164042
       23       7.592308       2.032665
       24       8.092308       2.115165
       25       8.630769       2.234596
       26       9.276923       2.432600
       27       8.969231       2.338513
       28       7.676923       2.052560
       29       8.084615       2.149627
       30       8.853846       2.310738
       31       7.792308       2.062381

 Density error is 1006.268621772329
                          Error Threshold = 0.000195502549

       Energy                       Rydberg                            eV
   E_KohnSham            -2762.027732476314           -37579.315195697520
     E_Harris            -2771.402422616537           -37706.864398588979
      E_Fermi               +0.836258524920              +11.377880939981

 PW ALGORITHM --------------- ION=   1  ELEC=   6--------------------------------
  K-point    CG iter num      Time(Sec)
        1       6.138462       1.692873
        2       5.753846       1.533670
        3       5.876923       1.586309
        4       6.200000       1.601823
        5       5.876923       1.556190
        6       5.000000       1.295213
        7       6.138462       1.668752
        8       6.053846       1.614914
        9       6.638462       1.822505
       10       6.853846       1.795641
       11       5.846154       1.575251
       12       5.815385       1.553831
       13       7.261538       1.939965
       14       6.453846       1.744278
       15       6.184615       1.676737
       16       5.969231       1.627133
       17       6.392308       1.698106
       18       7.492308       2.033647
       19       8.107692       2.141861
       20       7.092308       1.883417
       21       8.238462       2.209815
       22       7.284615       1.914483
       23       6.215385       1.651998
       24       6.507692       1.723628
       25       8.107692       2.138548
       26       9.215385       2.428244
       27       9.007692       2.364488
       28       5.615385       1.502252
       29       6.423077       1.730925
       30       7.207692       1.898464
       31       5.253846       1.409473

 Density error is 50.106045773850
                          Error Threshold = 0.000195502549

       Energy                       Rydberg                            eV
   E_KohnSham            -2766.680874464106           -37642.624440334534
     E_Harris            -2767.318002112308           -37651.293006703425
      E_Fermi               +0.860571834955              +11.708680493709

 PW ALGORITHM --------------- ION=   1  ELEC=   7--------------------------------
  K-point    CG iter num      Time(Sec)
        1       4.038462       1.076415
        2       4.776923       1.279537
        3       3.492308       0.998803
        4       2.692308       0.658980
        5       2.538462       0.638592
        6       2.446154       0.599305
        7       4.684615       1.257657
        8       5.161538       1.407974
        9       4.015385       1.044408
       10       3.800000       1.002443
       11       3.400000       0.879582
       12       3.384615       0.904949
       13       3.569231       0.940306
       14       4.123077       1.083184
       15       5.030769       1.381171
       16       3.430769       0.871298
       17       4.392308       1.178934
       18       4.315385       1.152566
       19       3.438462       0.875290
       20       3.292308       0.869581
       21       3.715385       0.982296
       22       3.853846       0.974455
       23       2.861538       0.711909
       24       3.715385       0.984264
       25       3.815385       1.004678
       26       3.407692       0.873767
       27       3.669231       0.942820
       28       2.484615       0.627809
       29       3.700000       0.953931
       30       3.392308       0.857778
       31       2.553846       0.648063

 Density error is 15.535745502198
                          Error Threshold = 0.000195502549

       Energy                       Rydberg                            eV
   E_KohnSham            -2766.918221395894           -37645.853711009680
     E_Harris            -2767.165962204350           -37649.224397631799
      E_Fermi               +0.862163892324              +11.730341545471

 PW ALGORITHM --------------- ION=   1  ELEC=   8--------------------------------
  K-point    CG iter num      Time(Sec)
        1       4.630769       1.235831
        2       3.207692       0.812552
        3       2.600000       0.637004
        4       2.330769       0.551643
        5       2.238462       0.527794
        6       2.223077       0.524687
        7       3.423077       0.878848
        8       3.107692       0.772884
        9       3.046154       0.787637
       10       2.676923       0.661476
       11       2.584615       0.639225
       12       2.700000       0.671992
       13       2.938462       0.740401
       14       3.053846       0.799123
       15       3.238462       0.821222
       16       2.730769       0.679023
       17       3.015385       0.785697
       18       2.600000       0.608991
       19       2.707692       0.692775
       20       2.553846       0.617115
       21       2.730769       0.691476
       22       2.753846       0.668892
       23       2.523077       0.615772
       24       2.853846       0.712498
       25       2.615385       0.638518
       26       2.853846       0.742442
       27       2.707692       0.640379
       28       2.238462       0.554091
       29       2.576923       0.605535
       30       2.630769       0.667709
       31       2.223077       0.502284

 Density error is 4.992947410405
                          Error Threshold = 0.000195502549

       Energy                       Rydberg                            eV
   E_KohnSham            -2767.009696262270           -37647.098290416179
     E_Harris            -2767.115571247287           -37648.538793488078
      E_Fermi               +0.862229634084              +11.731236007998

 PW ALGORITHM --------------- ION=   1  ELEC=   9--------------------------------
  K-point    CG iter num      Time(Sec)
        1       4.815385       1.283870
        2       3.323077       0.828898
        3       2.315385       0.555269
        4       2.230769       0.517293
        5       2.192308       0.518109
        6       2.238462       0.498114
        7       3.400000       0.893953
        8       3.215385       0.830093
        9       3.576923       0.938477
       10       2.553846       0.625602
       11       2.453846       0.601038
       12       2.584615       0.674943
       13       2.738462       0.691885
       14       3.184615       0.832532
       15       3.400000       0.894864
       16       2.607692       0.641420
       17       3.538462       0.912601
       18       2.746154       0.705690
       19       2.630769       0.644431
       20       2.492308       0.626041
       21       2.553846       0.628682
       22       3.169231       0.791386
       23       2.230769       0.534671
       24       2.623077       0.643979
       25       2.646154       0.729963
       26       2.915385       0.820877
       27       2.561538       0.712012
       28       2.192308       0.603086
       29       2.469231       0.670969
       30       2.530769       0.690430
       31       2.238462       0.590215

 Density error is 9.050416081410
                          Error Threshold = 0.000195502549

       Energy                       Rydberg                            eV
   E_KohnSham            -2766.984670115062           -37646.757792215161
     E_Harris            -2767.125368549612           -37648.672092624722
      E_Fermi               +0.862363956609              +11.733063559709

 PW ALGORITHM --------------- ION=   1  ELEC=  10--------------------------------
  K-point    CG iter num      Time(Sec)
        1       4.646154       1.335337
        2       3.138462       0.813027
        3       2.376923       0.576717
        4       2.300000       0.541517
        5       2.284615       0.543558
        6       2.292308       0.542828
        7       3.253846       0.835413
        8       3.069231       0.768792
        9       3.146154       0.829481
       10       2.615385       0.654659
       11       2.469231       0.615787
       12       2.653846       0.681163
       13       2.938462       0.750213
       14       3.284615       0.872950
       15       3.153846       0.799580
       16       2.661538       0.655798
       17       3.269231       0.859977
       18       2.692308       0.760994
       19       2.669231       0.756032
       20       2.569231       0.718795
       21       2.692308       0.736857
       22       2.746154       0.750524
       23       2.284615       0.636216
       24       2.653846       0.752664
       25       2.776923       0.793803
       26       2.815385       0.783768
       27       2.592308       0.699282
       28       2.269231       0.606169
       29       2.592308       0.693143
       30       2.669231       0.737553
       31       2.284615       0.602156

 Density error is 5.288030767724
                          Error Threshold = 0.000195502549

       Energy                       Rydberg                            eV
   E_KohnSham            -2767.050112872179           -37647.648186604783
     E_Harris            -2767.132695861635           -37648.771785819255
      E_Fermi               +0.861697296972              +11.723993190014

 PW ALGORITHM --------------- ION=   1  ELEC=  11--------------------------------
  K-point    CG iter num      Time(Sec)
        1       3.123077       0.777539
        2       2.700000       0.681934
        3       2.192308       0.584528
        4       2.184615       0.551469
        5       2.153846       0.544665
        6       2.146154       0.501688
        7       2.515385       0.602013
        8       2.615385       0.652062
        9       2.469231       0.595587
       10       2.361538       0.567370
       11       2.276923       0.527410
       12       2.315385       0.577115
       13       2.476923       0.574504
       14       2.569231       0.651578
       15       2.561538       0.609137
       16       2.369231       0.588029
       17       2.561538       0.608948
       18       2.353846       0.583190
       19       2.338462       0.527633
       20       2.323077       0.581225
       21       2.338462       0.532297
       22       2.369231       0.577354
       23       2.184615       0.505606
       24       2.400000       0.579327
       25       2.400000       0.578076
       26       2.415385       0.584713
       27       2.284615       0.546606
       28       2.146154       0.501761
       29       2.307692       0.566089
       30       2.369231       0.553606
       31       2.153846       0.525410

 Density error is 2.094680009198
                          Error Threshold = 0.000195502549

       Energy                       Rydberg                            eV
   E_KohnSham            -2767.074169875963           -37647.975498933047
     E_Harris            -2767.096385132415           -37648.277753003327
      E_Fermi               +0.863531332808              +11.748946527720

 PW ALGORITHM --------------- ION=   1  ELEC=  12--------------------------------
  K-point    CG iter num      Time(Sec)
        1       2.192308       0.513164
        2       2.169231       0.473933
        3       2.061538       0.482163
        4       2.046154       0.471929
        5       2.046154       0.455097
        6       2.038462       0.490992
        7       2.169231       0.484634
        8       2.092308       0.491092
        9       2.192308       0.524534
       10       2.069231       0.479664
       11       2.046154       0.494671
       12       2.053846       0.453269
       13       2.123077       0.501863
       14       2.123077       0.499948
       15       2.223077       0.529649
       16       2.223077       0.530323
       17       2.192308       0.499592
       18       2.092308       0.513568
       19       2.100000       0.466784
       20       2.046154       0.478587
       21       2.092308       0.494547
       22       2.169231       0.494355
       23       2.046154       0.492590
       24       2.130769       0.476181
       25       2.076923       0.487612
       26       2.069231       0.488252
       27       2.092308       0.484546
       28       2.046154       0.487184
       29       2.076923       0.456455
       30       2.053846       0.477408
       31       2.053846       0.483281

 Density error is 0.188496189856
                          Error Threshold = 0.000195502549

       Energy                       Rydberg                            eV
   E_KohnSham            -2767.078487124799           -37648.034238116903
     E_Harris            -2767.084065329932           -37648.110133491326
      E_Fermi               +0.864629799282              +11.763891930837

 PW ALGORITHM --------------- ION=   1  ELEC=  13--------------------------------
  K-point    CG iter num      Time(Sec)
        1       3.884615       1.005124
        2       2.623077       0.656117
        3       2.161538       0.480535
        4       2.138462       0.515205
        5       2.130769       0.482512
        6       2.138462       0.502127
        7       2.484615       0.606600
        8       2.384615       0.573626
        9       2.330769       0.563910
       10       2.230769       0.530357
       11       2.207692       0.531929
       12       2.230769       0.505216
       13       2.476923       0.633542
       14       2.269231       0.515200
       15       2.407692       0.612074
       16       2.146154       0.479906
       17       2.392308       0.582071
       18       2.269231       0.540213
       19       2.200000       0.526516
       20       2.192308       0.523502
       21       2.215385       0.523341
       22       2.338462       0.561910
       23       2.138462       0.473814
       24       2.284615       0.572807
       25       2.330769       0.542109
       26       2.246154       0.542097
       27       2.176923       0.510256
       28       2.123077       0.502783
       29       2.246154       0.539911
       30       2.246154       0.521917
       31       2.138462       0.523595

 Density error is 1.809393481861
                          Error Threshold = 0.000085680086

       Energy                       Rydberg                            eV
   E_KohnSham            -2767.060148912904           -37647.784733943998
     E_Harris            -2767.091061605684           -37648.205322706322
      E_Fermi               +0.863574875145              +11.749538951610

 PW ALGORITHM --------------- ION=   1  ELEC=  14--------------------------------
  K-point    CG iter num      Time(Sec)
        1       4.792308       1.298808
        2       2.669231       0.662545
        3       2.146154       0.482685
        4       2.130769       0.513711
        5       2.115385       0.471216
        6       2.138462       0.501385
        7       2.669231       0.660820
        8       2.315385       0.557519
        9       2.315385       0.561433
       10       2.253846       0.541516
       11       2.238462       0.538658
       12       2.269231       0.559348
       13       2.453846       0.605769
       14       2.330769       0.560987
       15       2.530769       0.695231
       16       2.169231       0.586656
       17       2.469231       0.683296
       18       2.307692       0.628985
       19       2.292308       0.619975
       20       2.207692       0.602143
       21       2.261538       0.564830
       22       2.369231       0.562478
       23       2.123077       0.501423
       24       2.307692       0.544967
       25       2.330769       0.582669
       26       2.284615       0.519600
       27       2.292308       0.581113
       28       2.115385       0.467442
       29       2.253846       0.541299
       30       2.276923       0.537514
       31       2.146154       0.511611

 Density error is 1.768452066921
                          Error Threshold = 0.000085680086

       Energy                       Rydberg                            eV
   E_KohnSham            -2767.050993677799           -37647.660170580049
     E_Harris            -2767.090035989529           -37648.191368482658
      E_Fermi               +0.863965885255              +11.754858917086

 PW ALGORITHM --------------- ION=   1  ELEC=  15--------------------------------
  K-point    CG iter num      Time(Sec)
        1       5.023077       1.344996
        2       3.084615       0.787074
        3       2.523077       0.585990
        4       2.253846       0.617938
        5       2.215385       0.492224
        6       2.323077       0.565183
        7       3.415385       0.888844
        8       3.253846       0.829196
        9       3.046154       0.793909
       10       2.700000       0.637909
       11       2.553846       0.648894
       12       2.800000       0.696249
       13       3.100000       0.790845
       14       3.015385       0.784099
       15       3.292308       0.846284
       16       2.361538       0.568551
       17       3.046154       0.761588
       18       2.823077       0.698403
       19       2.684615       0.675313
       20       2.692308       0.654586
       21       2.630769       0.677970
       22       2.946154       0.714342
       23       2.253846       0.551586
       24       2.707692       0.658204
       25       2.715385       0.678447
       26       2.730769       0.675245
       27       2.553846       0.625965
       28       2.215385       0.525578
       29       2.830769       0.703868
       30       2.661538       0.649246
       31       2.384615       0.574899

 Density error is 18.019563683728
                          Error Threshold = 0.000085680086

       Energy                       Rydberg                            eV
   E_KohnSham            -2766.973655490447           -37646.607930559061
     E_Harris            -2767.164992324870           -37649.211201744496
      E_Fermi               +0.860410258722              +11.706482136273

 PW ALGORITHM --------------- ION=   1  ELEC=  16--------------------------------
  K-point    CG iter num      Time(Sec)
        1       4.461538       1.190539
        2       3.638462       0.934569
        3       2.884615       0.743798
        4       2.269231       0.536088
        5       2.223077       0.526339
        6       2.238462       0.498349
        7       3.600000       0.966413
        8       3.676923       0.988578
        9       3.553846       0.979074
       10       3.015385       0.763742
       11       2.653846       0.677053
       12       2.715385       0.676250
       13       2.992308       0.755334
       14       3.584615       0.959912
       15       3.407692       0.868822
       16       2.392308       0.573383
       17       3.715385       0.991543
       18       2.792308       0.693098
       19       2.630769       0.649406
       20       2.700000       0.669625
       21       2.846154       0.709679
       22       3.284615       0.860816
       23       2.261538       0.530307
       24       3.292308       0.858690
       25       3.030769       0.787236
       26       2.830769       0.684650
       27       2.515385       0.643017
       28       2.215385       0.496512
       29       2.500000       0.641985
       30       2.853846       0.696475
       31       2.307692       0.573176

 Density error is 1.238353957419
                          Error Threshold = 0.000085680086

       Energy                       Rydberg                            eV
   E_KohnSham            -2767.064053355135           -37647.837856605853
     E_Harris            -2767.089431740586           -37648.183147254029
      E_Fermi               +0.863832058239              +11.753038107118

 PW ALGORITHM --------------- ION=   1  ELEC=  17--------------------------------
  K-point    CG iter num      Time(Sec)
        1       4.338462       1.124175
        2       2.984615       0.766752
        3       2.230769       0.521441
        4       2.200000       0.528400
        5       2.153846       0.474104
        6       2.176923       0.514879
        7       2.923077       0.727466
        8       2.561538       0.657087
        9       2.607692       0.613601
       10       2.338462       0.586417
       11       2.261538       0.512963
       12       2.261538       0.559601
       13       2.953846       0.732851
       14       2.453846       0.620992
       15       2.884615       0.713229
       16       2.207692       0.530268
       17       2.838462       0.703473
       18       2.369231       0.579120
       19       2.361538       0.562236
       20       2.253846       0.552332
       21       2.284615       0.519095
       22       2.500000       0.626951
       23       2.192308       0.493078
       24       2.369231       0.631536
       25       2.453846       0.621180
       26       2.476923       0.654945
       27       2.253846       0.587190
       28       2.153846       0.582305
       29       2.400000       0.573159
       30       2.600000       0.674415
       31       2.184615       0.505899

 Density error is 2.660962580238
                          Error Threshold = 0.000085680086

       Energy                       Rydberg                            eV
   E_KohnSham            -2767.045247873325           -37647.581994899600
     E_Harris            -2767.094529645330           -37648.252507806406
      E_Fermi               +0.863158805907              +11.743878039218

 PW ALGORITHM --------------- ION=   1  ELEC=  18--------------------------------
  K-point    CG iter num      Time(Sec)
        1       4.446154       1.227846
        2       2.876923       0.715441
        3       2.192308       0.523077
        4       2.161538       0.509506
        5       2.176923       0.537483
        6       2.176923       0.501000
        7       2.892308       0.760413
        8       2.546154       0.620825
        9       2.746154       0.728279
       10       2.353846       0.560519
       11       2.292308       0.569839
       12       2.300000       0.540896
       13       2.630769       0.672316
       14       2.461538       0.633840
       15       2.715385       0.698647
       16       2.184615       0.545319
       17       2.823077       0.744661
       18       2.392308       0.604705
       19       2.338462       0.569227
       20       2.300000       0.570717
       21       2.323077       0.570434
       22       2.469231       0.609135
       23       2.161538       0.513535
       24       2.423077       0.621192
       25       2.600000       0.655471
       26       2.684615       0.735731
       27       2.284615       0.548479
       28       2.176923       0.521287
       29       2.384615       0.580458
       30       2.353846       0.564080
       31       2.169231       0.522733

 Density error is 3.992143554110
                          Error Threshold = 0.000085680086

       Energy                       Rydberg                            eV
   E_KohnSham            -2767.058480759031           -37647.762037546185
     E_Harris            -2767.101457743668           -37648.346769420103
      E_Fermi               +0.862595647001              +11.736215869212

 PW ALGORITHM --------------- ION=   1  ELEC=  19--------------------------------
  K-point    CG iter num      Time(Sec)
        1       4.323077       1.168591
        2       2.446154       0.608189
        3       2.184615       0.543029
        4       2.146154       0.523645
        5       2.130769       0.516648
        6       2.138462       0.508667
        7       2.907692       0.730437
        8       2.376923       0.607033
        9       2.569231       0.616134
       10       2.276923       0.590527
       11       2.238462       0.525019
       12       2.292308       0.609773
       13       2.476923       0.615461
       14       2.323077       0.597710
       15       2.484615       0.610552
       16       2.161538       0.547631
       17       2.607692       0.634936
       18       2.338462       0.611085
       19       2.292308       0.537837
       20       2.230769       0.556694
       21       2.261538       0.545884
       22       2.623077       0.642793
       23       2.146154       0.503149
       24       2.323077       0.560976
       25       2.353846       0.572859
       26       2.361538       0.581675
       27       2.215385       0.536513
       28       2.130769       0.478551
       29       2.292308       0.589838
       30       2.261538       0.508325
       31       2.130769       0.516547

 Density error is 0.244212687758
                          Error Threshold = 0.000085680086

       Energy                       Rydberg                            eV
   E_KohnSham            -2767.079866096493           -37648.052999989319
     E_Harris            -2767.083555397580           -37648.103195505748
      E_Fermi               +0.864375150367              +11.760427254595

 PW ALGORITHM --------------- ION=   1  ELEC=  20--------------------------------
  K-point    CG iter num      Time(Sec)
        1       2.000000       0.507707
        2       2.023077       0.461585
        3       2.000000       0.461674
        4       2.000000       0.474370
        5       2.000000       0.429745
        6       2.000000       0.459402
        7       2.000000       0.489330
        8       2.000000       0.527622
        9       2.000000       0.489099
       10       2.000000       0.442972
       11       2.000000       0.481602
       12       2.000000       0.493404
       13       2.053846       0.484808
       14       2.000000       0.493874
       15       2.023077       0.495945
       16       2.000000       0.467503
       17       2.023077       0.476280
       18       2.023077       0.500493
       19       2.000000       0.502037
       20       2.000000       0.494701
       21       2.000000       0.471561
       22       2.038462       0.466370
       23       2.000000       0.459296
       24       2.030769       0.487875
       25       2.046154       0.520604
       26       2.015385       0.494045
       27       2.000000       0.482623
       28       2.000000       0.500813
       29       2.023077       0.475373
       30       2.053846       0.450762
       31       2.000000       0.472266

 Density error is 0.030028820312
                          Error Threshold = 0.000085680086

       Energy                       Rydberg                            eV
   E_KohnSham            -2767.081916845777           -37648.080901864756
     E_Harris            -2767.082269776125           -37648.085703728480
      E_Fermi               +0.864436701166              +11.761264696185

 PW ALGORITHM --------------- ION=   1  ELEC=  21--------------------------------
  K-point    CG iter num      Time(Sec)
        1       3.646154       1.004394
        2       2.646154       0.652840
        3       2.138462       0.496447
        4       2.084615       0.480417
        5       2.061538       0.482739
        6       2.092308       0.456811
        7       2.453846       0.636288
        8       2.330769       0.528677
        9       2.315385       0.588547
       10       2.184615       0.501027
       11       2.123077       0.510792
       12       2.130769       0.511268
       13       2.207692       0.527061
       14       2.253846       0.543580
       15       2.453846       0.586716
       16       2.115385       0.514155
       17       2.400000       0.549865
       18       2.253846       0.566324
       19       2.176923       0.495684
       20       2.115385       0.503062
       21       2.200000       0.529996
       22       2.292308       0.543471
       23       2.084615       0.495097
       24       2.176923       0.486622
       25       2.276923       0.567959
       26       2.238462       0.509671
       27       2.130769       0.508284
       28       2.061538       0.482413
       29       2.130769       0.500084
       30       2.146154       0.513141
       31       2.176923       0.489878

 Density error is 0.011228789434
                          Error Threshold = 0.000013649464

       Energy                       Rydberg                            eV
   E_KohnSham            -2767.082033130742           -37648.082484002865
     E_Harris            -2767.082173104402           -37648.084388442221
      E_Fermi               +0.864428376695              +11.761151435941

 PW ALGORITHM --------------- ION=   1  ELEC=  22--------------------------------
  K-point    CG iter num      Time(Sec)
        1       3.392308       0.857527
        2       2.423077       0.572759
        3       2.169231       0.510170
        4       2.138462       0.493574
        5       2.153846       0.473814
        6       2.292308       0.565638
        7       2.476923       0.589447
        8       2.323077       0.567871
        9       2.292308       0.545546
       10       2.246154       0.541549
       11       2.200000       0.531581
       12       2.246154       0.546510
       13       2.346154       0.570860
       14       2.276923       0.542129
       15       2.369231       0.587508
       16       2.176923       0.486100
       17       2.407692       0.613473
       18       2.246154       0.507885
       19       2.269231       0.566009
       20       2.215385       0.519332
       21       2.207692       0.531813
       22       2.300000       0.547472
       23       2.130769       0.505707
       24       2.284615       0.582526
       25       2.307692       0.577119
       26       2.307692       0.566679
       27       2.192308       0.553422
       28       2.138462       0.529235
       29       2.238462       0.510241
       30       2.215385       0.537996
       31       2.115385       0.492784

 Density error is 0.080745925957
                          Error Threshold = 0.000005103995

       Energy                       Rydberg                            eV
   E_KohnSham            -2767.080776630819           -37648.065388444382
     E_Harris            -2767.082440525602           -37648.088026894300
      E_Fermi               +0.864352161547              +11.760114475658

 PW ALGORITHM --------------- ION=   1  ELEC=  23--------------------------------
  K-point    CG iter num      Time(Sec)
        1       3.846154       1.020889
        2       2.846154       0.699934
        3       2.192308       0.525812
        4       2.153846       0.521743
        5       2.146154       0.499526
        6       2.153846       0.534214
        7       2.530769       0.630646
        8       2.400000       0.607735
        9       2.400000       0.552207
       10       2.284615       0.575287
       11       2.246154       0.517449
       12       2.300000       0.575538
       13       2.415385       0.583731
       14       2.361538       0.652512
       15       2.523077       0.685780
       16       2.192308       0.605981
       17       2.469231       0.591812
       18       2.330769       0.591030
       19       2.292308       0.550538
       20       2.269231       0.555446
       21       2.261538       0.538126
       22       2.369231       0.570665
       23       2.138462       0.533836
       24       2.315385       0.570107
       25       2.407692       0.622270
       26       2.300000       0.590138
       27       2.307692       0.641755
       28       2.138462       0.506201
       29       2.246154       0.558531
       30       2.292308       0.592280
       31       2.138462       0.558075

 Density error is 0.222544788132
                          Error Threshold = 0.000005103995

       Energy                       Rydberg                            eV
   E_KohnSham            -2767.079405213738           -37648.046729357746
     E_Harris            -2767.083087783634           -37648.096833291616
      E_Fermi               +0.864339843685              +11.759946882546

 PW ALGORITHM --------------- ION=   1  ELEC=  24--------------------------------
  K-point    CG iter num      Time(Sec)
        1       4.569231       1.220116
        2       3.069231       0.766234
        3       2.253846       0.539602
        4       2.169231       0.506359
        5       2.184615       0.497407
        6       2.200000       0.539339
        7       2.661538       0.641521
        8       2.553846       0.645061
        9       2.638462       0.645909
       10       2.376923       0.587034
       11       2.307692       0.538373
       12       2.346154       0.586187
       13       2.630769       0.639163
       14       2.446154       0.611026
       15       2.646154       0.646996
       16       2.261538       0.552070
       17       2.669231       0.653633
       18       2.453846       0.600920
       19       2.353846       0.557604
       20       2.300000       0.568263
       21       2.400000       0.556672
       22       2.492308       0.621193
       23       2.169231       0.483946
       24       2.446154       0.620177
       25       2.538462       0.593954
       26       2.407692       0.614720
       27       2.353846       0.538512
       28       2.161538       0.512390
       29       2.369231       0.566212
       30       2.369231       0.583898
       31       2.253846       0.546308

 Density error is 0.678024762203
                          Error Threshold = 0.000005103995

       Energy                       Rydberg                            eV
   E_KohnSham            -2767.077735163920           -37648.024007164284
     E_Harris            -2767.084795192028           -37648.120063774579
      E_Fermi               +0.863952659947              +11.754678977537

 PW ALGORITHM --------------- ION=   1  ELEC=  25--------------------------------
  K-point    CG iter num      Time(Sec)
        1       4.546154       1.218527
        2       2.784615       0.676103
        3       2.246154       0.553736
        4       2.169231       0.501289
        5       2.176923       0.533632
        6       2.215385       0.556887
        7       2.615385       0.659786
        8       2.500000       0.609411
        9       2.646154       0.670503
       10       2.384615       0.602905
       11       2.292308       0.576366
       12       2.323077       0.563192
       13       2.507692       0.612050
       14       2.430769       0.630898
       15       2.515385       0.698111
       16       2.246154       0.575925
       17       2.715385       0.700045
       18       2.438462       0.601006
       19       2.376923       0.592461
       20       2.300000       0.565547
       21       2.369231       0.586673
       22       2.523077       0.657007
       23       2.184615       0.545847
       24       2.415385       0.606702
       25       2.584615       0.712470
       26       2.346154       0.556556
       27       2.269231       0.568815
       28       2.169231       0.501995
       29       2.323077       0.559347
       30       2.376923       0.575909
       31       2.246154       0.556153

 Density error is 0.145640773517
                          Error Threshold = 0.000005103995

       Energy                       Rydberg                            eV
   E_KohnSham            -2767.080929101245           -37648.067462910949
     E_Harris            -2767.082845991899           -37648.093543546289
      E_Fermi               +0.864256433593              +11.758812030020

 PW ALGORITHM --------------- ION=   1  ELEC=  26--------------------------------
  K-point    CG iter num      Time(Sec)
        1       3.353846       0.906527
        2       2.484615       0.566483
        3       2.146154       0.529317
        4       2.123077       0.465525
        5       2.130769       0.509421
        6       2.130769       0.528756
        7       2.469231       0.604406
        8       2.246154       0.539377
        9       2.430769       0.593497
       10       2.207692       0.533810
       11       2.192308       0.500674
       12       2.176923       0.581591
       13       2.330769       0.532839
       14       2.261538       0.598458
       15       2.307692       0.547833
       16       2.138462       0.533547
       17       2.415385       0.580330
       18       2.207692       0.530581
       19       2.223077       0.535196
       20       2.184615       0.522410
       21       2.184615       0.523956
       22       2.338462       0.533897
       23       2.115385       0.520808
       24       2.261538       0.516392
       25       2.361538       0.592243
       26       2.230769       0.522476
       27       2.169231       0.517196
       28       2.138462       0.570577
       29       2.230769       0.532677
       30       2.246154       0.533604
       31       2.146154       0.479141

 Density error is 0.014057490610
                          Error Threshold = 0.000005103995

       Energy                       Rydberg                            eV
   E_KohnSham            -2767.081651821445           -37648.077296023730
     E_Harris            -2767.082134086804           -37648.083857580568
      E_Fermi               +0.864398846911              +11.760749662615

 PW ALGORITHM --------------- ION=   1  ELEC=  27--------------------------------
  K-point    CG iter num      Time(Sec)
        1       2.792308       0.679986
        2       2.392308       0.575759
        3       2.092308       0.459652
        4       2.100000       0.497776
        5       2.100000       0.478678
        6       2.115385       0.494653
        7       2.338462       0.563967
        8       2.246154       0.532836
        9       2.400000       0.590234
       10       2.200000       0.499172
       11       2.169231       0.543890
       12       2.176923       0.490782
       13       2.261538       0.549879
       14       2.246154       0.536546
       15       2.246154       0.540019
       16       2.100000       0.496175
       17       2.353846       0.565616
       18       2.207692       0.541110
       19       2.200000       0.500436
       20       2.176923       0.542631
       21       2.184615       0.497942
       22       2.269231       0.534941
       23       2.092308       0.491874
       24       2.238462       0.533923
       25       2.346154       0.570768
       26       2.184615       0.506617
       27       2.138462       0.528247
       28       2.100000       0.465205
       29       2.223077       0.537475
       30       2.192308       0.560973
       31       2.115385       0.564124

 Density error is 0.163378718290
                          Error Threshold = 0.000005103995

       Energy                       Rydberg                            eV
   E_KohnSham            -2767.081064139959           -37648.069300206909
     E_Harris            -2767.082777429241           -37648.092610703468
      E_Fermi               +0.864260103865              +11.758861966640

 PW ALGORITHM --------------- ION=   1  ELEC=  28--------------------------------
  K-point    CG iter num      Time(Sec)
        1       3.292308       0.874122
        2       2.376923       0.609190
        3       2.115385       0.556189
        4       2.100000       0.501731
        5       2.092308       0.539054
        6       2.123077       0.464535
        7       2.276923       0.547618
        8       2.230769       0.604469
        9       2.315385       0.594180
       10       2.192308       0.556491
       11       2.153846       0.527544
       12       2.169231       0.553453
       13       2.223077       0.547679
       14       2.200000       0.548547
       15       2.215385       0.611111
       16       2.100000       0.530382
       17       2.292308       0.543356
       18       2.192308       0.578611
       19       2.161538       0.484122
       20       2.153846       0.553101
       21       2.184615       0.517272
       22       2.261538       0.544361
       23       2.092308       0.525489
       24       2.223077       0.570652
       25       2.330769       0.570327
       26       2.161538       0.556240
       27       2.100000       0.554161
       28       2.092308       0.463407
       29       2.200000       0.542598
       30       2.176923       0.502205
       31       2.115385       0.507607

 Density error is 0.010220549016
                          Error Threshold = 0.000005103995

       Energy                       Rydberg                            eV
   E_KohnSham            -2767.081975826925           -37648.081704344448
     E_Harris            -2767.082123739361           -37648.083716796376
      E_Fermi               +0.864393285025              +11.760673989272

[...]
      89       5.509303       0.040000
      90       5.549853       0.040000
      91       6.181634       0.040000
      92       6.217844       0.040000
      93       6.978761       0.040000
      94       7.010824       0.040000
      95       7.887771       0.040000
      96       7.907470       0.040000
      97       8.773525       0.040000
      98       8.786583       0.040000
      99       8.955153       0.040000
     100       8.985873       0.040000
     101       9.140316       0.040000
     102       9.144264       0.040000
     103       9.355202       0.040000
     104       9.408467       0.040000
     105       9.683086       0.040000
     106       9.732244       0.040000
     107      10.034288       0.040000
     108      10.043091       0.040000
     109      10.475318       0.040000
     110      10.523150       0.040000
     111      11.070090       0.040000
     112      11.152718       0.040000
     113      11.807457       0.010259
     114      11.838017       0.005571
     115      11.883538       0.001698
     116      11.926102       0.000406
     117      12.726902       0.000000
     118      12.770060       0.000000
     119      13.132391       0.000000
     120      13.152539       0.000000
     121      13.774062       0.000000
     122      13.799426       0.000000
     123      14.601586       0.000000
     124      14.637595       0.000000
     125      14.907043       0.000000
     126      14.919508       0.000000
     127      16.121076       0.000000
     128      16.135026       0.000000
     129      16.233997       0.000000
     130      16.273994       0.000000

 29/31 kpoint (Cartesian) = 0.848528 0.326599 0.043301 (526 pws)
       1     -91.687548       0.080000
       2     -91.687289       0.080000
       3     -91.670616       0.080000
       4     -91.670106       0.080000
       5     -91.669575       0.080000
       6     -91.666998       0.080000
       7     -91.663503       0.080000
       8     -91.662342       0.080000
       9     -91.657317       0.080000
      10     -91.655846       0.080000
      11     -91.654377       0.080000
      12     -91.652895       0.080000
      13     -91.649989       0.080000
      14     -91.648295       0.080000
      15     -91.642706       0.080000
      16     -91.641678       0.080000
      17     -91.624080       0.080000
      18     -91.623496       0.080000
      19     -91.609279       0.080000
      20     -91.588953       0.080000
      21     -53.300021       0.080000
      22     -53.299835       0.080000
      23     -53.291634       0.080000
      24     -53.291436       0.080000
      25     -53.286294       0.080000
      26     -53.286103       0.080000
      27     -53.284677       0.080000
      28     -53.284433       0.080000
      29     -53.282489       0.080000
      30     -53.282376       0.080000
      31     -53.280750       0.080000
      32     -53.280338       0.080000
      33     -53.278884       0.080000
      34     -53.278492       0.080000
      35     -53.276047       0.080000
      36     -53.275877       0.080000
      37     -53.275351       0.080000
      38     -53.275204       0.080000
      39     -53.270869       0.080000
      40     -53.270683       0.080000
      41     -53.270003       0.080000
      42     -53.269800       0.080000
      43     -53.269636       0.080000
      44     -53.269479       0.080000
      45     -53.268471       0.080000
      46     -53.268387       0.080000
      47     -53.268298       0.080000
      48     -53.268158       0.080000
      49     -53.267933       0.080000
      50     -53.267501       0.080000
      51     -53.264494       0.080000
      52     -53.264261       0.080000
      53     -53.262137       0.080000
      54     -53.261885       0.080000
      55     -53.261468       0.080000
      56     -53.260996       0.080000
      57     -53.257243       0.080000
      58     -53.257097       0.080000
      59     -53.256780       0.080000
      60     -53.256277       0.080000
      61     -53.255641       0.080000
      62     -53.255460       0.080000
      63     -53.254718       0.080000
      64     -53.254353       0.080000
      65     -53.252518       0.080000
      66     -53.252299       0.080000
      67     -53.250336       0.080000
      68     -53.250050       0.080000
      69     -53.247746       0.080000
      70     -53.247161       0.080000
      71     -53.233752       0.080000
      72     -53.233471       0.080000
      73     -53.230096       0.080000
      74     -53.227944       0.080000
      75     -53.227620       0.080000
      76     -53.217691       0.080000
      77     -53.215927       0.080000
      78     -53.211517       0.080000
      79     -53.197922       0.080000
      80     -53.196296       0.080000
      81       5.370733       0.080000
      82       5.381732       0.080000
      83       5.497394       0.080000
      84       5.526400       0.080000
      85       5.767146       0.080000
      86       5.807437       0.080000
      87       6.164999       0.080000
      88       6.207702       0.080000
      89       6.695521       0.080000
      90       6.735874       0.080000
      91       7.339759       0.080000
      92       7.371536       0.080000
      93       7.744221       0.080000
      94       7.752686       0.080000
      95       7.857695       0.080000
      96       7.898593       0.080000
      97       8.054561       0.080000
      98       8.105090       0.080000
      99       8.223328       0.080000
     100       8.253317       0.080000
     101       8.542924       0.080000
     102       8.581231       0.080000
     103       8.977206       0.080000
     104       8.984481       0.080000
     105       9.215857       0.080000
     106       9.224769       0.080000
     107       9.681834       0.080000
     108       9.709249       0.080000
     109      10.257537       0.080000
     110      10.259129       0.080000
     111      10.795615       0.080000
     112      10.844187       0.080000
     113      11.477783       0.079997
     114      11.497419       0.079991
     115      11.602699       0.078948
     116      11.633898       0.077020
     117      12.575709       0.000000
     118      12.603327       0.000000
     119      12.815079       0.000000
     120      12.815170       0.000000
     121      13.666486       0.000000
     122      13.688009       0.000000
     123      13.986787       0.000000
     124      14.023790       0.000000
     125      14.560741       0.000000
     126      14.595020       0.000000
     127      14.712776       0.000000
     128      14.730399       0.000000
     129      15.216509       0.000000
     130      15.238775       0.000000

 30/31 kpoint (Cartesian) = 0.565685 0.653197 0.043301 (538 pws)
       1     -91.676209       0.040000
       2     -91.673973       0.040000
       3     -91.663262       0.040000
       4     -91.663048       0.040000
       5     -91.661046       0.040000
       6     -91.660484       0.040000
       7     -91.657052       0.040000
       8     -91.656186       0.040000
       9     -91.652614       0.040000
      10     -91.651586       0.040000
      11     -91.645534       0.040000
      12     -91.645171       0.040000
      13     -91.645046       0.040000
      14     -91.642706       0.040000
      15     -91.638903       0.040000
      16     -91.636921       0.040000
      17     -91.621242       0.040000
      18     -91.617710       0.040000
      19     -91.603963       0.040000
      20     -91.583779       0.040000
      21     -53.298299       0.040000
      22     -53.298088       0.040000
      23     -53.290320       0.040000
      24     -53.290068       0.040000
      25     -53.288318       0.040000
      26     -53.288056       0.040000
      27     -53.283644       0.040000
      28     -53.283300       0.040000
      29     -53.280834       0.040000
      30     -53.280688       0.040000
      31     -53.279489       0.040000
      32     -53.279112       0.040000
      33     -53.277405       0.040000
      34     -53.277030       0.040000
      35     -53.274822       0.040000
      36     -53.274537       0.040000
      37     -53.274449       0.040000
      38     -53.274349       0.040000
      39     -53.272602       0.040000
      40     -53.272463       0.040000
      41     -53.271868       0.040000
      42     -53.271558       0.040000
      43     -53.270268       0.040000
      44     -53.269819       0.040000
      45     -53.269072       0.040000
      46     -53.268533       0.040000
      47     -53.267809       0.040000
      48     -53.267680       0.040000
      49     -53.267279       0.040000
      50     -53.266637       0.040000
      51     -53.263001       0.040000
      52     -53.262791       0.040000
      53     -53.262014       0.040000
      54     -53.261958       0.040000
      55     -53.260988       0.040000
      56     -53.260652       0.040000
      57     -53.259096       0.040000
      58     -53.258958       0.040000
      59     -53.258533       0.040000
      60     -53.258390       0.040000
      61     -53.256946       0.040000
      62     -53.256605       0.040000
      63     -53.254664       0.040000
      64     -53.254267       0.040000
      65     -53.251714       0.040000
      66     -53.251272       0.040000
      67     -53.250884       0.040000
      68     -53.250574       0.040000
      69     -53.248682       0.040000
      70     -53.248451       0.040000
      71     -53.233989       0.040000
      72     -53.233269       0.040000
      73     -53.229791       0.040000
      74     -53.229489       0.040000
      75     -53.228373       0.040000
      76     -53.218081       0.040000
      77     -53.217330       0.040000
      78     -53.209784       0.040000
      79     -53.198438       0.040000
      80     -53.197570       0.040000
      81       7.035705       0.040000
      82       7.036702       0.040000
      83       7.048643       0.040000
      84       7.074713       0.040000
      85       7.155004       0.040000
      86       7.175747       0.040000
      87       7.179813       0.040000
      88       7.215022       0.040000
      89       7.392541       0.040000
      90       7.450918       0.040000
      91       7.456660       0.040000
      92       7.476303       0.040000
      93       7.775503       0.040000
      94       7.820921       0.040000
      95       7.871252       0.040000
      96       7.897110       0.040000
      97       8.263097       0.040000
      98       8.288356       0.040000
      99       8.433160       0.040000
     100       8.475112       0.040000
     101       8.883955       0.040000
     102       8.918370       0.040000
     103       9.146750       0.040000
     104       9.166983       0.040000
     105       9.653557       0.040000
     106       9.666113       0.040000
     107       9.930911       0.040000
     108       9.955642       0.040000
     109      10.605627       0.040000
     110      10.616534       0.040000
     111      11.017004       0.040000
     112      11.061277       0.040000
     113      11.540931       0.039960
     114      11.552717       0.039931
     115      11.626744       0.038809
     116      11.665790       0.036367
     117      11.886677       0.001544
     118      11.888068       0.001480
     119      11.993142       0.000022
     120      11.995510       0.000020
     121      12.175002       0.000000
     122      12.223450       0.000000
     123      12.556902       0.000000
     124      12.651184       0.000000
     125      13.050418       0.000000
     126      13.113144       0.000000
     127      13.397012       0.000000
     128      13.436654       0.000000
     129      13.495413       0.000000
     130      13.593997       0.000000

 31/31 kpoint (Cartesian) = 0.707107 0.408248 0.043301 (524 pws)
       1     -91.689429       0.020000
       2     -91.689117       0.020000
       3     -91.677221       0.020000
       4     -91.676660       0.020000
       5     -91.673529       0.020000
       6     -91.670262       0.020000
       7     -91.669379       0.020000
       8     -91.667609       0.020000
       9     -91.664931       0.020000
      10     -91.664094       0.020000
      11     -91.659804       0.020000
      12     -91.659082       0.020000
      13     -91.652835       0.020000
      14     -91.651375       0.020000
      15     -91.646770       0.020000
      16     -91.643704       0.020000
      17     -91.623054       0.020000
      18     -91.622742       0.020000
      19     -91.613834       0.020000
      20     -91.593628       0.020000
      21     -53.301680       0.020000
      22     -53.301324       0.020000
      23     -53.292510       0.020000
      24     -53.292232       0.020000
      25     -53.286379       0.020000
      26     -53.285857       0.020000
      27     -53.285357       0.020000
      28     -53.285171       0.020000
      29     -53.284136       0.020000
      30     -53.283894       0.020000
      31     -53.282252       0.020000
      32     -53.281871       0.020000
      33     -53.280121       0.020000
      34     -53.279796       0.020000
      35     -53.277011       0.020000
      36     -53.276724       0.020000
      37     -53.276321       0.020000
      38     -53.276127       0.020000
      39     -53.270520       0.020000
      40     -53.270245       0.020000
      41     -53.270074       0.020000
      42     -53.270029       0.020000
      43     -53.269682       0.020000
      44     -53.269181       0.020000
      45     -53.268928       0.020000
      46     -53.268913       0.020000
      47     -53.268818       0.020000
      48     -53.268538       0.020000
      49     -53.267393       0.020000
      50     -53.266938       0.020000
      51     -53.266077       0.020000
      52     -53.265850       0.020000
      53     -53.262512       0.020000
      54     -53.262121       0.020000
      55     -53.261700       0.020000
      56     -53.261370       0.020000
      57     -53.256617       0.020000
      58     -53.256467       0.020000
      59     -53.256158       0.020000
      60     -53.256026       0.020000
      61     -53.255993       0.020000
      62     -53.255738       0.020000
      63     -53.254267       0.020000
      64     -53.254129       0.020000
      65     -53.253917       0.020000
      66     -53.253862       0.020000
      67     -53.250267       0.020000
      68     -53.249938       0.020000
      69     -53.247414       0.020000
      70     -53.246809       0.020000
      71     -53.233828       0.020000
      72     -53.233500       0.020000
      73     -53.231729       0.020000
      74     -53.227257       0.020000
      75     -53.226853       0.020000
      76     -53.217819       0.020000
      77     -53.215389       0.020000
      78     -53.213158       0.020000
      79     -53.198043       0.020000
      80     -53.195747       0.020000
      81       6.317673       0.020000
      82       6.319282       0.020000
      83       6.330712       0.020000
      84       6.359391       0.020000
      85       6.439458       0.020000
      86       6.460992       0.020000
      87       6.464753       0.020000
      88       6.501295       0.020000
      89       6.685641       0.020000
      90       6.741854       0.020000
      91       6.744374       0.020000
      92       6.762380       0.020000
      93       7.066806       0.020000
      94       7.115747       0.020000
      95       7.159330       0.020000
      96       7.185318       0.020000
      97       7.560510       0.020000
      98       7.587122       0.020000
      99       7.723780       0.020000
     100       7.768309       0.020000
     101       8.189472       0.020000
     102       8.225443       0.020000
     103       8.449926       0.020000
     104       8.475579       0.020000
     105       8.963637       0.020000
     106       8.984102       0.020000
     107       9.258389       0.020000
     108       9.284858       0.020000
     109       9.972240       0.020000
     110       9.974426       0.020000
     111      10.466216       0.020000
     112      10.505689       0.020000
     113      11.240194       0.020000
     114      11.268619       0.020000
     115      11.310196       0.020000
     116      11.312100       0.020000
     117      12.272425       0.000000
     118      12.344917       0.000000
     119      12.418103       0.000000
     120      12.493248       0.000000
     121      13.694443       0.000000
     122      13.732420       0.000000
     123      13.803882       0.000000
     124      13.836440       0.000000
     125      15.084943       0.000000
     126      15.091495       0.000000
     127      15.098077       0.000000
     128      15.135887       0.000000
     129      16.493058       0.000000
     130      16.497778       0.000000



 --------------------------------------------
 !FINAL_ETOT_IS -37648.0828560673398897 eV
 --------------------------------------------






  |CLASS_NAME---------|NAME---------------|TIME(Sec)-----|CALLS----|AVG------|PER%-------
                                      total     1300.10291        17     76.48    100.00%
                 Run_pw     plane_wave_line     1300.09638         1   1300.10    100.00%
                Cell_PW        opt_cells_pw     1300.00333         1   1300.00     99.99%
                    FFT               FFT3D      328.57424   1829225      0.00     25.27%
              Potential            v_of_rho        0.39102        50      0.01      0.03%
                H_XC_pw                v_xc        0.35827        50      0.01      0.03%
               wavefunc             wfcinit        9.01593         1      9.02      0.69%
            pp_cell_vnl              getvnl        1.46397      1581      0.00      0.11%
                 WF_igk              get_sk        0.35196     32240      0.00      0.03%
              Hamilt_PW      diagH_subspace      109.59166      1519      0.07      8.43%
              Hamilt_PW               h_psi      873.03157    631949      0.00     67.15%
              Hamilt_PW                vloc      375.44062    631949      0.00     28.88%
              Hamilt_PW                 vnl      492.78976    631949      0.00     37.90%
              Hamilt_PW     add_nonlocal_pp      157.32323    631949      0.00     12.10%
              Hamilt_PW                meta        0.17285    631949      0.00      0.01%
                 Hamilt        diagH_LAPACK        9.62107      1519      0.01      0.74%
                   Ions         opt_ions_pw     1290.87603         1   1290.88     99.29%
              Electrons     self_consistent     1290.87601         1   1290.88     99.29%
               Symmetry        rho_symmetry        0.39441        51      0.01      0.03%
              Electrons             c_bands     1196.33113        50     23.93     92.02%
                 Hamilt            diagH_pw     1194.63288      1550      0.77     91.89%
               Diago_CG                diag     1087.17841      1550      0.70     83.62%
                 Charge            sum_band       89.28504        50      1.79      6.87%
                 Charge             rho_mpi        0.37547        50      0.01      0.03%
                 Charge             mix_rho        0.15440        50      0.00      0.01%
 ----------------------------------------------------------------------------------------

 CLASS_NAME---------|NAME---------------|MEMORY(MB)--------
                                         42.9659
             wavefunc                 evc        38.9865
 ----------------------------------------------------------

 Start  Time  : Wed Mar 30 19:30:41 2022
 Finish Time  : Wed Mar 30 19:52:24 2022
 Total  Time  : 0 h 21 mins 43 secs 
