                                                                                     
                             WELCOME TO ABACUS                                       
                                                                                     
               'Atomic-orbital Based Ab-initio Computation at UStc'                  
                                                                                     
                     Website: http://abacus.ustc.edu.cn/                             
                                                                                     
    Version: Parallel, in development
    Processor Number is 1
    Start Time is Fri Sep 10 11:34:30 2021
                                                                                     
 ------------------------------------------------------------------------------------

 READING GENERAL INFORMATION
                           global_out_dir = OUT.blpstest/
                           global_in_card = INPUT
                               pseudo_dir = ./
                              orbital_dir = ./
                              pseudo_type = blps
                                    DRANK = 1
                                    DSIZE = 1
                                   DCOLOR = 1
                                    GRANK = 1
                                    GSIZE = 1




 >>>>>>>>>>>>>>>>>>>>>>>>>>>>>>>>>>>>>>>>>>>>>>>>>>>>>>>>>>>>>>>>>>>>>>
 |                                                                    |
 | Reading atom information in unitcell:                              |
 | From the input file and the structure file we know the number of   |
 | different elments in this unitcell, then we list the detail        |
 | information for each element, especially the zeta and polar atomic |
 | orbital number for each element. The total atom number is counted. |
 | We calculate the nearest atom distance for each atom and show the  |
 | Cartesian and Direct coordinates for each atom. We list the file   |
 | address for atomic orbitals. The volume and the lattice vectors    |
 | in real and reciprocal space is also shown.                        |
 |                                                                    |
 <<<<<<<<<<<<<<<<<<<<<<<<<<<<<<<<<<<<<<<<<<<<<<<<<<<<<<<<<<<<<<<<<<<<<<




 READING UNITCELL INFORMATION
                                    ntype = 1
                 atom label for species 1 = Si
                  lattice constant (Bohr) = 6.40293
              lattice constant (Angstrom) = 3.38828

 READING ATOM TYPE 1
                               atom label = Si
                      L=0, number of zeta = 1
                      L=1, number of zeta = 1
                      L=2, number of zeta = 1
             number of atom for this type = 1
                      start magnetization = FALSE

                        TOTAL ATOM NUMBER = 1

 DIRECT COORDINATES
         atom                   x                   y                   z                 mag                  vx                  vy                  vz
     taud_Si1                   0                   0                   0                   0                   0                   0                   0


                          Volume (Bohr^3) = 131.252
                             Volume (A^3) = 19.4495

 Lattice vectors: (Cartesian coordinate: in unit of a_0)
                 -0.5                +0.5                +0.5
                 +0.5                -0.5                +0.5
                 +0.5                +0.5                -0.5
 Reciprocal vectors: (Cartesian coordinate: in unit of 2 pi/a_0)
                   +0                  +1                  +1
                   +1                  +0                  +1
                   +1                  +1                  +0




 >>>>>>>>>>>>>>>>>>>>>>>>>>>>>>>>>>>>>>>>>>>>>>>>>>>>>>>>>>>>>>>>>>>>>>
 |                                                                    |
 | Reading pseudopotentials files:                                    |
 | The pseudopotential file is in UPF format. The 'NC' indicates that |
 | the type of pseudopotential is 'norm conserving'. Functional of    |
 | exchange and correlation is decided by 4 given parameters in UPF   |
 | file.  We also read in the 'core correction' if there exists.      |
 | Also we can read the valence electrons number and the maximal      |
 | angular momentum used in this pseudopotential. We also read in the |
 | trail wave function, trail atomic density and local-pseudopotential|
 | on logrithmic grid. The non-local pseudopotential projector is also|
 | read in if there is any.                                           |
 |                                                                    |
 <<<<<<<<<<<<<<<<<<<<<<<<<<<<<<<<<<<<<<<<<<<<<<<<<<<<<<<<<<<<<<<<<<<<<<




                PAO radial cut off (Bohr) = 16

 Read in pseudopotential file is si.lda.lps
                     pseudopotential type = 
                            functional Ex = LDA
                            functional Ec = LDA
                          functional GCEx = NOGX
                          functional GCEc = NOGC
                 nonlocal core correction = 0
                        valence electrons = 4
                                     lmax = 0
                           number of zeta = 0
                     number of projectors = 0
     initial pseudo atomic orbital number = 0
                                   NLOCAL = 9

 SETUP THE ELECTRONS NUMBER
            electron number of element Si = 4
      total electron number of element Si = 4
                           occupied bands = 2
                                   NBANDS = 12
 DONE : SETUP UNITCELL Time : 0.0635171 (SEC)





 >>>>>>>>>>>>>>>>>>>>>>>>>>>>>>>>>>>>>>>>>>>>>>>>>>>>>>>>>>>>>>>>>>>>>>
 |                                                                    |
 | Doing symmetry analysis:                                           |
 | We calculate the norm of 3 vectors and the angles between them,    |
 | the type of Bravais lattice is given. We can judge if the unticell |
 | is a primitive cell. Finally we give the point group operation for |
 | this unitcell. We we use the point group operations to do symmetry |
 | analysis on given k-point mesh and the charge density.             |
 |                                                                    |
 <<<<<<<<<<<<<<<<<<<<<<<<<<<<<<<<<<<<<<<<<<<<<<<<<<<<<<<<<<<<<<<<<<<<<<




 LATTICE VECTORS: (CARTESIAN COORDINATE: IN UNIT OF A0)
                 -0.5                +0.5                +0.5
                 +0.5                -0.5                +0.5
                 +0.5                +0.5                -0.5
                       right hand lattice = 1
                                   NORM_A = 0.866025
                                   NORM_B = 0.866025
                                   NORM_C = 0.866025
                           ALPHA (DEGREE) = 109.471
                           BETA  (DEGREE) = 109.471
                           GAMMA (DEGREE) = 109.471
                             BRAVAIS TYPE = 2
                     BRAVAIS LATTICE NAME = 02. Cubic I (body-centered)
 STANDARD LATTICE VECTORS: (CARTESIAN COORDINATE: IN UNIT OF A0)
                 -0.5                +0.5                +0.5
                 +0.5                -0.5                +0.5
                 +0.5                +0.5                -0.5
                                    IBRAV = 2
                                  BRAVAIS = BODY CENTERED CUBIC
                       LATTICE CONSTANT A = 2.59808
                                    ibrav = 2
                        ROTATION MATRICES = 48
              PURE POINT GROUP OPERATIONS = 48
                   SPACE GROUP OPERATIONS = 48
                              POINT GROUP = O_h
 DONE : SYMMETRY Time : 0.151433 (SEC)





 >>>>>>>>>>>>>>>>>>>>>>>>>>>>>>>>>>>>>>>>>>>>>>>>>>>>>>>>>>>>>>>>>>>>>>
 |                                                                    |
 | Setup K-points                                                     |
 | We setup the k-points according to input parameters.               |
 | The reduced k-points are set according to symmetry operations.     |
 | We treat the spin as another set of k-points.                      |
 |                                                                    |
 <<<<<<<<<<<<<<<<<<<<<<<<<<<<<<<<<<<<<<<<<<<<<<<<<<<<<<<<<<<<<<<<<<<<<<





 SETUP K-POINTS
                                    nspin = 1
                   Input type of k points = Monkhorst-Pack(Gamma)
                                   nkstot = 4096
                               nkstot_ibz = 145
      IBZ             DirectX             DirectY             DirectZ              Weight    ibz2bz
        1                   0                   0                   0         0.000244141         0
        2              0.9375              0.0625                   0          0.00292969         1
        3               0.875               0.125                   0          0.00292969         2
        4              0.8125              0.1875                   0          0.00292969         3
        5                0.75                0.25                   0          0.00292969         4
        6              0.6875              0.3125                   0          0.00292969         5
        7               0.625               0.375                   0          0.00292969         6
        8              0.5625              0.4375                   0          0.00292969         7
        9                 0.5                 0.5                   0          0.00146484         8
       10              0.9375              0.9375               0.125          0.00585938        17
       11              0.9375               0.875              0.1875           0.0117188        18
       12              0.9375              0.8125                0.25           0.0117188        19
       13              0.9375                0.75              0.3125           0.0117188        20
       14              0.9375              0.6875               0.375           0.0117188        21
       15              0.9375               0.625              0.4375           0.0117188        22
       16              0.9375              0.5625                 0.5           0.0117188        23
       17               0.875               0.875                0.25          0.00585938        34
       18               0.875              0.8125              0.3125           0.0117188        35
       19               0.875                0.75               0.375           0.0117188        36
       20               0.875              0.6875              0.4375           0.0117188        37
       21               0.875               0.625                 0.5           0.0117188        38
       22               0.875              0.5625              0.5625          0.00585938        39
       23              0.8125              0.8125               0.375          0.00585938        51
       24              0.8125                0.75              0.4375           0.0117188        52
       25              0.8125              0.6875                 0.5           0.0117188        53
       26              0.8125               0.625              0.5625           0.0117188        54
       27                0.75                0.75                 0.5          0.00585938        68
       28                0.75              0.6875              0.5625           0.0117188        69
       29                0.75               0.625               0.625          0.00585938        70
       30              0.6875              0.6875               0.625          0.00585938        85
       31              0.9375              0.9375              0.9375          0.00195312       273
       32              0.9375              0.9375               0.875          0.00585938       274
       33              0.9375              0.9375              0.8125          0.00585938       275
       34              0.9375              0.9375                0.75          0.00585938       276
       35              0.9375              0.9375              0.6875          0.00585938       277
       36              0.9375              0.9375               0.625          0.00585938       278
       37              0.9375              0.9375              0.5625          0.00292969       279
       38              0.9375              0.9375              0.0625          0.00146484       287
       39              0.9375               0.875               0.875          0.00585938       290
       40              0.9375               0.875              0.8125           0.0117188       291
       41              0.9375               0.875                0.75           0.0117188       292
       42              0.9375               0.875              0.6875           0.0117188       293
       43              0.9375               0.875               0.625           0.0117188       294
       44              0.9375               0.875               0.125          0.00585938       302
       45              0.9375              0.8125              0.8125          0.00585938       307
       46              0.9375              0.8125                0.75           0.0117188       308
       47              0.9375              0.8125              0.6875           0.0117188       309
       48              0.9375              0.8125               0.625          0.00585938       310
       49              0.9375              0.8125              0.1875          0.00585938       317
       50               0.875               0.875              0.1875          0.00585938       318
       51              0.9375                0.75                0.75          0.00585938       324
       52              0.9375                0.75              0.6875           0.0117188       325
       53              0.9375                0.75                0.25          0.00585938       332
       54               0.875              0.8125                0.25           0.0117188       333
       55              0.9375              0.6875              0.6875          0.00195312       341
       56              0.9375              0.6875              0.3125          0.00585938       347
       57               0.875                0.75              0.3125           0.0117188       348
       58              0.8125              0.8125              0.3125          0.00585938       349
       59              0.9375               0.625               0.375          0.00585938       362
       60               0.875              0.6875               0.375           0.0117188       363
       61              0.8125                0.75               0.375           0.0117188       364
       62              0.9375              0.5625              0.4375          0.00585938       377
       63               0.875               0.625              0.4375           0.0117188       378
       64              0.8125              0.6875              0.4375           0.0117188       379
       65                0.75                0.75              0.4375          0.00585938       380
       66              0.9375                 0.5                 0.5          0.00292969       392
       67               0.875              0.5625                 0.5           0.0117188       393
       68              0.8125               0.625                 0.5           0.0117188       394
       69                0.75              0.6875                 0.5           0.0117188       395
       70              0.8125              0.5625              0.5625          0.00585938       409
       71                0.75               0.625              0.5625           0.0117188       410
       72              0.6875              0.6875              0.5625          0.00585938       411
       73              0.6875               0.625               0.625          0.00585938       426
       74               0.875               0.875               0.875          0.00195312       546
       75               0.875               0.875              0.8125          0.00585938       547
       76               0.875               0.875                0.75          0.00585938       548
       77               0.875               0.875              0.6875          0.00585938       549
       78               0.875               0.875               0.625          0.00292969       550
       79               0.875               0.875               0.125          0.00146484       558
       80               0.875              0.8125              0.8125          0.00585938       563
       81               0.875              0.8125                0.75           0.0117188       564
       82               0.875              0.8125              0.6875           0.0117188       565
       83               0.875              0.8125              0.1875          0.00585938       573
       84               0.875                0.75                0.75          0.00585938       580
       85               0.875                0.75              0.6875          0.00585938       581
       86               0.875                0.75                0.25          0.00585938       588
       87              0.8125              0.8125                0.25          0.00585938       589
       88               0.875              0.6875              0.3125          0.00585938       603
       89              0.8125                0.75              0.3125           0.0117188       604
       90               0.875               0.625               0.375          0.00585938       618
       91              0.8125              0.6875               0.375           0.0117188       619
       92                0.75                0.75               0.375          0.00585938       620
       93               0.875              0.5625              0.4375          0.00585938       633
       94              0.8125               0.625              0.4375           0.0117188       634
       95                0.75              0.6875              0.4375           0.0117188       635
       96               0.875                 0.5                 0.5          0.00292969       648
       97              0.8125              0.5625                 0.5           0.0117188       649
       98                0.75               0.625                 0.5           0.0117188       650
       99              0.6875              0.6875                 0.5          0.00585938       651
      100                0.75              0.5625              0.5625          0.00585938       665
      101              0.6875               0.625              0.5625           0.0117188       666
      102               0.625               0.625               0.625          0.00195312       682
      103              0.8125              0.8125              0.8125          0.00195312       819
      104              0.8125              0.8125                0.75          0.00585938       820
      105              0.8125              0.8125              0.6875          0.00292969       821
      106              0.8125              0.8125              0.1875          0.00146484       829
      107              0.8125                0.75                0.75          0.00585938       836
      108              0.8125                0.75                0.25          0.00585938       844
      109              0.8125              0.6875              0.3125          0.00585938       859
      110                0.75                0.75              0.3125          0.00585938       860
      111              0.8125               0.625               0.375          0.00585938       874
      112                0.75              0.6875               0.375           0.0117188       875
      113              0.8125              0.5625              0.4375          0.00585938       889
      114                0.75               0.625              0.4375           0.0117188       890
      115              0.6875              0.6875              0.4375          0.00585938       891
      116              0.8125                 0.5                 0.5          0.00292969       904
      117                0.75              0.5625                 0.5           0.0117188       905
      118              0.6875               0.625                 0.5           0.0117188       906
      119              0.6875              0.5625              0.5625          0.00585938       921
      120               0.625               0.625              0.5625          0.00585938       922
      121                0.75                0.75                0.75         0.000488281      1092
      122                0.75                0.75                0.25          0.00146484      1100
      123                0.75              0.6875              0.3125          0.00585938      1115
      124                0.75               0.625               0.375          0.00585938      1130
      125              0.6875              0.6875               0.375          0.00585938      1131
      126                0.75              0.5625              0.4375          0.00585938      1145
      127              0.6875               0.625              0.4375           0.0117188      1146
      128                0.75                 0.5                 0.5          0.00292969      1160
      129              0.6875              0.5625                 0.5           0.0117188      1161
      130               0.625               0.625                 0.5          0.00585938      1162
      131               0.625              0.5625              0.5625          0.00585938      1177
      132              0.6875              0.6875              0.3125          0.00146484      1371
      133              0.6875               0.625               0.375          0.00585938      1386
      134              0.6875              0.5625              0.4375          0.00585938      1401
      135               0.625               0.625              0.4375          0.00585938      1402
      136              0.6875                 0.5                 0.5          0.00292969      1416
      137               0.625              0.5625                 0.5           0.0117188      1417
      138              0.5625              0.5625              0.5625          0.00195312      1433
      139               0.625               0.625               0.375          0.00146484      1642
      140               0.625              0.5625              0.4375          0.00585938      1657
      141               0.625                 0.5                 0.5          0.00292969      1672
      142              0.5625              0.5625                 0.5          0.00585938      1673
      143              0.5625              0.5625              0.4375          0.00146484      1913
      144              0.5625                 0.5                 0.5          0.00292969      1928
      145                 0.5                 0.5                 0.5         0.000244141      2184
                               nkstot now = 145

  KPOINTS            DIRECT_X            DIRECT_Y            DIRECT_Z              WEIGHT
        1                   0                   0                   0         0.000244141
        2              0.9375              0.0625                   0          0.00292969
        3               0.875               0.125                   0          0.00292969
        4              0.8125              0.1875                   0          0.00292969
        5                0.75                0.25                   0          0.00292969
        6              0.6875              0.3125                   0          0.00292969
        7               0.625               0.375                   0          0.00292969
        8              0.5625              0.4375                   0          0.00292969
        9                 0.5                 0.5                   0          0.00146484
       10              0.9375              0.9375               0.125          0.00585938
       11              0.9375               0.875              0.1875           0.0117188
       12              0.9375              0.8125                0.25           0.0117188
       13              0.9375                0.75              0.3125           0.0117188
       14              0.9375              0.6875               0.375           0.0117188
       15              0.9375               0.625              0.4375           0.0117188
       16              0.9375              0.5625                 0.5           0.0117188
       17               0.875               0.875                0.25          0.00585938
       18               0.875              0.8125              0.3125           0.0117188
       19               0.875                0.75               0.375           0.0117188
       20               0.875              0.6875              0.4375           0.0117188
       21               0.875               0.625                 0.5           0.0117188
       22               0.875              0.5625              0.5625          0.00585938
       23              0.8125              0.8125               0.375          0.00585938
       24              0.8125                0.75              0.4375           0.0117188
       25              0.8125              0.6875                 0.5           0.0117188
       26              0.8125               0.625              0.5625           0.0117188
       27                0.75                0.75                 0.5          0.00585938
       28                0.75              0.6875              0.5625           0.0117188
       29                0.75               0.625               0.625          0.00585938
       30              0.6875              0.6875               0.625          0.00585938
       31              0.9375              0.9375              0.9375          0.00195312
       32              0.9375              0.9375               0.875          0.00585938
       33              0.9375              0.9375              0.8125          0.00585938
       34              0.9375              0.9375                0.75          0.00585938
       35              0.9375              0.9375              0.6875          0.00585938
       36              0.9375              0.9375               0.625          0.00585938
       37              0.9375              0.9375              0.5625          0.00292969
       38              0.9375              0.9375              0.0625          0.00146484
       39              0.9375               0.875               0.875          0.00585938
       40              0.9375               0.875              0.8125           0.0117188
       41              0.9375               0.875                0.75           0.0117188
       42              0.9375               0.875              0.6875           0.0117188
       43              0.9375               0.875               0.625           0.0117188
       44              0.9375               0.875               0.125          0.00585938
       45              0.9375              0.8125              0.8125          0.00585938
       46              0.9375              0.8125                0.75           0.0117188
       47              0.9375              0.8125              0.6875           0.0117188
       48              0.9375              0.8125               0.625          0.00585938
       49              0.9375              0.8125              0.1875          0.00585938
       50               0.875               0.875              0.1875          0.00585938
       51              0.9375                0.75                0.75          0.00585938
       52              0.9375                0.75              0.6875           0.0117188
       53              0.9375                0.75                0.25          0.00585938
       54               0.875              0.8125                0.25           0.0117188
       55              0.9375              0.6875              0.6875          0.00195312
       56              0.9375              0.6875              0.3125          0.00585938
       57               0.875                0.75              0.3125           0.0117188
       58              0.8125              0.8125              0.3125          0.00585938
       59              0.9375               0.625               0.375          0.00585938
       60               0.875              0.6875               0.375           0.0117188
       61              0.8125                0.75               0.375           0.0117188
       62              0.9375              0.5625              0.4375          0.00585938
       63               0.875               0.625              0.4375           0.0117188
       64              0.8125              0.6875              0.4375           0.0117188
       65                0.75                0.75              0.4375          0.00585938
       66              0.9375                 0.5                 0.5          0.00292969
       67               0.875              0.5625                 0.5           0.0117188
       68              0.8125               0.625                 0.5           0.0117188
       69                0.75              0.6875                 0.5           0.0117188
       70              0.8125              0.5625              0.5625          0.00585938
       71                0.75               0.625              0.5625           0.0117188
       72              0.6875              0.6875              0.5625          0.00585938
       73              0.6875               0.625               0.625          0.00585938
       74               0.875               0.875               0.875          0.00195312
       75               0.875               0.875              0.8125          0.00585938
       76               0.875               0.875                0.75          0.00585938
       77               0.875               0.875              0.6875          0.00585938
       78               0.875               0.875               0.625          0.00292969
       79               0.875               0.875               0.125          0.00146484
       80               0.875              0.8125              0.8125          0.00585938
       81               0.875              0.8125                0.75           0.0117188
       82               0.875              0.8125              0.6875           0.0117188
       83               0.875              0.8125              0.1875          0.00585938
       84               0.875                0.75                0.75          0.00585938
       85               0.875                0.75              0.6875          0.00585938
       86               0.875                0.75                0.25          0.00585938
       87              0.8125              0.8125                0.25          0.00585938
       88               0.875              0.6875              0.3125          0.00585938
       89              0.8125                0.75              0.3125           0.0117188
       90               0.875               0.625               0.375          0.00585938
       91              0.8125              0.6875               0.375           0.0117188
       92                0.75                0.75               0.375          0.00585938
       93               0.875              0.5625              0.4375          0.00585938
       94              0.8125               0.625              0.4375           0.0117188
       95                0.75              0.6875              0.4375           0.0117188
       96               0.875                 0.5                 0.5          0.00292969
       97              0.8125              0.5625                 0.5           0.0117188
       98                0.75               0.625                 0.5           0.0117188
       99              0.6875              0.6875                 0.5          0.00585938
      100                0.75              0.5625              0.5625          0.00585938
      101              0.6875               0.625              0.5625           0.0117188
      102               0.625               0.625               0.625          0.00195312
      103              0.8125              0.8125              0.8125          0.00195312
      104              0.8125              0.8125                0.75          0.00585938
      105              0.8125              0.8125              0.6875          0.00292969
      106              0.8125              0.8125              0.1875          0.00146484
      107              0.8125                0.75                0.75          0.00585938
      108              0.8125                0.75                0.25          0.00585938
      109              0.8125              0.6875              0.3125          0.00585938
      110                0.75                0.75              0.3125          0.00585938
      111              0.8125               0.625               0.375          0.00585938
      112                0.75              0.6875               0.375           0.0117188
      113              0.8125              0.5625              0.4375          0.00585938
      114                0.75               0.625              0.4375           0.0117188
      115              0.6875              0.6875              0.4375          0.00585938
      116              0.8125                 0.5                 0.5          0.00292969
      117                0.75              0.5625                 0.5           0.0117188
      118              0.6875               0.625                 0.5           0.0117188
      119              0.6875              0.5625              0.5625          0.00585938
      120               0.625               0.625              0.5625          0.00585938
      121                0.75                0.75                0.75         0.000488281
      122                0.75                0.75                0.25          0.00146484
      123                0.75              0.6875              0.3125          0.00585938
      124                0.75               0.625               0.375          0.00585938
      125              0.6875              0.6875               0.375          0.00585938
      126                0.75              0.5625              0.4375          0.00585938
      127              0.6875               0.625              0.4375           0.0117188
      128                0.75                 0.5                 0.5          0.00292969
      129              0.6875              0.5625                 0.5           0.0117188
      130               0.625               0.625                 0.5          0.00585938
      131               0.625              0.5625              0.5625          0.00585938
      132              0.6875              0.6875              0.3125          0.00146484
      133              0.6875               0.625               0.375          0.00585938
      134              0.6875              0.5625              0.4375          0.00585938
      135               0.625               0.625              0.4375          0.00585938
      136              0.6875                 0.5                 0.5          0.00292969
      137               0.625              0.5625                 0.5           0.0117188
      138              0.5625              0.5625              0.5625          0.00195312
      139               0.625               0.625               0.375          0.00146484
      140               0.625              0.5625              0.4375          0.00585938
      141               0.625                 0.5                 0.5          0.00292969
      142              0.5625              0.5625                 0.5          0.00585938
      143              0.5625              0.5625              0.4375          0.00146484
      144              0.5625                 0.5                 0.5          0.00292969
      145                 0.5                 0.5                 0.5         0.000244141

           k-point number in this process = 145
       minimum distributed K point number = 145

  KPOINTS         CARTESIAN_X         CARTESIAN_Y         CARTESIAN_Z              WEIGHT
        1                   0                   0                   0         0.000488281
        2              0.0625              0.9375                   1          0.00585938
        3               0.125               0.875                   1          0.00585938
        4              0.1875              0.8125                   1          0.00585938
        5                0.25                0.75                   1          0.00585938
        6              0.3125              0.6875                   1          0.00585938
        7               0.375               0.625                   1          0.00585938
        8              0.4375              0.5625                   1          0.00585938
        9                 0.5                 0.5                   1          0.00292969
       10              1.0625              1.0625               1.875           0.0117188
       11              1.0625               1.125              1.8125           0.0234375
       12              1.0625              1.1875                1.75           0.0234375
       13              1.0625                1.25              1.6875           0.0234375
       14              1.0625              1.3125               1.625           0.0234375
       15              1.0625               1.375              1.5625           0.0234375
       16              1.0625              1.4375                 1.5           0.0234375
       17               1.125               1.125                1.75           0.0117188
       18               1.125              1.1875              1.6875           0.0234375
       19               1.125                1.25               1.625           0.0234375
       20               1.125              1.3125              1.5625           0.0234375
       21               1.125               1.375                 1.5           0.0234375
       22               1.125              1.4375              1.4375           0.0117188
       23              1.1875              1.1875               1.625           0.0117188
       24              1.1875                1.25              1.5625           0.0234375
       25              1.1875              1.3125                 1.5           0.0234375
       26              1.1875               1.375              1.4375           0.0234375
       27                1.25                1.25                 1.5           0.0117188
       28                1.25              1.3125              1.4375           0.0234375
       29                1.25               1.375               1.375           0.0117188
       30              1.3125              1.3125               1.375           0.0117188
       31               1.875               1.875               1.875          0.00390625
       32              1.8125              1.8125               1.875           0.0117188
       33                1.75                1.75               1.875           0.0117188
       34              1.6875              1.6875               1.875           0.0117188
       35               1.625               1.625               1.875           0.0117188
       36              1.5625              1.5625               1.875           0.0117188
       37                 1.5                 1.5               1.875          0.00585938
       38                   1                   1               1.875          0.00292969
       39                1.75              1.8125              1.8125           0.0117188
       40              1.6875                1.75              1.8125           0.0234375
       41               1.625              1.6875              1.8125           0.0234375
       42              1.5625               1.625              1.8125           0.0234375
       43                 1.5              1.5625              1.8125           0.0234375
       44                   1              1.0625              1.8125           0.0117188
       45               1.625                1.75                1.75           0.0117188
       46              1.5625              1.6875                1.75           0.0234375
       47                 1.5               1.625                1.75           0.0234375
       48              1.4375              1.5625                1.75           0.0117188
       49                   1               1.125                1.75           0.0117188
       50              1.0625              1.0625                1.75           0.0117188
       51                 1.5              1.6875              1.6875           0.0117188
       52              1.4375               1.625              1.6875           0.0234375
       53                   1              1.1875              1.6875           0.0117188
       54              1.0625               1.125              1.6875           0.0234375
       55               1.375               1.625               1.625          0.00390625
       56                   1                1.25               1.625           0.0117188
       57              1.0625              1.1875               1.625           0.0234375
       58               1.125               1.125               1.625           0.0117188
       59                   1              1.3125              1.5625           0.0117188
       60              1.0625                1.25              1.5625           0.0234375
       61               1.125              1.1875              1.5625           0.0234375
       62                   1               1.375                 1.5           0.0117188
       63              1.0625              1.3125                 1.5           0.0234375
       64               1.125                1.25                 1.5           0.0234375
       65              1.1875              1.1875                 1.5           0.0117188
       66                   1              1.4375              1.4375          0.00585938
       67              1.0625               1.375              1.4375           0.0234375
       68               1.125              1.3125              1.4375           0.0234375
       69              1.1875                1.25              1.4375           0.0234375
       70               1.125               1.375               1.375           0.0117188
       71              1.1875              1.3125               1.375           0.0234375
       72                1.25                1.25               1.375           0.0117188
       73                1.25              1.3125              1.3125           0.0117188
       74                1.75                1.75                1.75          0.00390625
       75              1.6875              1.6875                1.75           0.0117188
       76               1.625               1.625                1.75           0.0117188
       77              1.5625              1.5625                1.75           0.0117188
       78                 1.5                 1.5                1.75          0.00585938
       79                   1                   1                1.75          0.00292969
       80               1.625              1.6875              1.6875           0.0117188
       81              1.5625               1.625              1.6875           0.0234375
       82                 1.5              1.5625              1.6875           0.0234375
       83                   1              1.0625              1.6875           0.0117188
       84                 1.5               1.625               1.625           0.0117188
       85              1.4375              1.5625               1.625           0.0117188
       86                   1               1.125               1.625           0.0117188
       87              1.0625              1.0625               1.625           0.0117188
       88                   1              1.1875              1.5625           0.0117188
       89              1.0625               1.125              1.5625           0.0234375
       90                   1                1.25                 1.5           0.0117188
       91              1.0625              1.1875                 1.5           0.0234375
       92               1.125               1.125                 1.5           0.0117188
       93                   1              1.3125              1.4375           0.0117188
       94              1.0625                1.25              1.4375           0.0234375
       95               1.125              1.1875              1.4375           0.0234375
       96                   1               1.375               1.375          0.00585938
       97              1.0625              1.3125               1.375           0.0234375
       98               1.125                1.25               1.375           0.0234375
       99              1.1875              1.1875               1.375           0.0117188
      100               1.125              1.3125              1.3125           0.0117188
      101              1.1875                1.25              1.3125           0.0234375
      102                1.25                1.25                1.25          0.00390625
      103               1.625               1.625               1.625          0.00390625
      104              1.5625              1.5625               1.625           0.0117188
      105                 1.5                 1.5               1.625          0.00585938
      106                   1                   1               1.625          0.00292969
      107                 1.5              1.5625              1.5625           0.0117188
      108                   1              1.0625              1.5625           0.0117188
      109                   1               1.125                 1.5           0.0117188
      110              1.0625              1.0625                 1.5           0.0117188
      111                   1              1.1875              1.4375           0.0117188
      112              1.0625               1.125              1.4375           0.0234375
      113                   1                1.25               1.375           0.0117188
      114              1.0625              1.1875               1.375           0.0234375
      115               1.125               1.125               1.375           0.0117188
      116                   1              1.3125              1.3125          0.00585938
      117              1.0625                1.25              1.3125           0.0234375
      118               1.125              1.1875              1.3125           0.0234375
      119               1.125                1.25                1.25           0.0117188
      120              1.1875              1.1875                1.25           0.0117188
      121                 1.5                 1.5                 1.5         0.000976562
      122                   1                   1                 1.5          0.00292969
      123                   1              1.0625              1.4375           0.0117188
      124                   1               1.125               1.375           0.0117188
      125              1.0625              1.0625               1.375           0.0117188
      126                   1              1.1875              1.3125           0.0117188
      127              1.0625               1.125              1.3125           0.0234375
      128                   1                1.25                1.25          0.00585938
      129              1.0625              1.1875                1.25           0.0234375
      130               1.125               1.125                1.25           0.0117188
      131               1.125              1.1875              1.1875           0.0117188
      132                   1                   1               1.375          0.00292969
      133                   1              1.0625              1.3125           0.0117188
      134                   1               1.125                1.25           0.0117188
      135              1.0625              1.0625                1.25           0.0117188
      136                   1              1.1875              1.1875          0.00585938
      137              1.0625               1.125              1.1875           0.0234375
      138               1.125               1.125               1.125          0.00390625
      139                   1                   1                1.25          0.00292969
      140                   1              1.0625              1.1875           0.0117188
      141                   1               1.125               1.125          0.00585938
      142              1.0625              1.0625               1.125           0.0117188
      143                   1                   1               1.125          0.00292969
      144                   1              1.0625              1.0625          0.00585938
      145                   1                   1                   1         0.000488281

  KPOINTS            DIRECT_X            DIRECT_Y            DIRECT_Z              WEIGHT
        1                   0                   0                   0         0.000488281
        2              0.9375              0.0625                   0          0.00585938
        3               0.875               0.125                   0          0.00585938
        4              0.8125              0.1875                   0          0.00585938
        5                0.75                0.25                   0          0.00585938
        6              0.6875              0.3125                   0          0.00585938
        7               0.625               0.375                   0          0.00585938
        8              0.5625              0.4375                   0          0.00585938
        9                 0.5                 0.5                   0          0.00292969
       10              0.9375              0.9375               0.125           0.0117188
       11              0.9375               0.875              0.1875           0.0234375
       12              0.9375              0.8125                0.25           0.0234375
       13              0.9375                0.75              0.3125           0.0234375
       14              0.9375              0.6875               0.375           0.0234375
       15              0.9375               0.625              0.4375           0.0234375
       16              0.9375              0.5625                 0.5           0.0234375
       17               0.875               0.875                0.25           0.0117188
       18               0.875              0.8125              0.3125           0.0234375
       19               0.875                0.75               0.375           0.0234375
       20               0.875              0.6875              0.4375           0.0234375
       21               0.875               0.625                 0.5           0.0234375
       22               0.875              0.5625              0.5625           0.0117188
       23              0.8125              0.8125               0.375           0.0117188
       24              0.8125                0.75              0.4375           0.0234375
       25              0.8125              0.6875                 0.5           0.0234375
       26              0.8125               0.625              0.5625           0.0234375
       27                0.75                0.75                 0.5           0.0117188
       28                0.75              0.6875              0.5625           0.0234375
       29                0.75               0.625               0.625           0.0117188
       30              0.6875              0.6875               0.625           0.0117188
       31              0.9375              0.9375              0.9375          0.00390625
       32              0.9375              0.9375               0.875           0.0117188
       33              0.9375              0.9375              0.8125           0.0117188
       34              0.9375              0.9375                0.75           0.0117188
       35              0.9375              0.9375              0.6875           0.0117188
       36              0.9375              0.9375               0.625           0.0117188
       37              0.9375              0.9375              0.5625          0.00585938
       38              0.9375              0.9375              0.0625          0.00292969
       39              0.9375               0.875               0.875           0.0117188
       40              0.9375               0.875              0.8125           0.0234375
       41              0.9375               0.875                0.75           0.0234375
       42              0.9375               0.875              0.6875           0.0234375
       43              0.9375               0.875               0.625           0.0234375
       44              0.9375               0.875               0.125           0.0117188
       45              0.9375              0.8125              0.8125           0.0117188
       46              0.9375              0.8125                0.75           0.0234375
       47              0.9375              0.8125              0.6875           0.0234375
       48              0.9375              0.8125               0.625           0.0117188
       49              0.9375              0.8125              0.1875           0.0117188
       50               0.875               0.875              0.1875           0.0117188
       51              0.9375                0.75                0.75           0.0117188
       52              0.9375                0.75              0.6875           0.0234375
       53              0.9375                0.75                0.25           0.0117188
       54               0.875              0.8125                0.25           0.0234375
       55              0.9375              0.6875              0.6875          0.00390625
       56              0.9375              0.6875              0.3125           0.0117188
       57               0.875                0.75              0.3125           0.0234375
       58              0.8125              0.8125              0.3125           0.0117188
       59              0.9375               0.625               0.375           0.0117188
       60               0.875              0.6875               0.375           0.0234375
       61              0.8125                0.75               0.375           0.0234375
       62              0.9375              0.5625              0.4375           0.0117188
       63               0.875               0.625              0.4375           0.0234375
       64              0.8125              0.6875              0.4375           0.0234375
       65                0.75                0.75              0.4375           0.0117188
       66              0.9375                 0.5                 0.5          0.00585938
       67               0.875              0.5625                 0.5           0.0234375
       68              0.8125               0.625                 0.5           0.0234375
       69                0.75              0.6875                 0.5           0.0234375
       70              0.8125              0.5625              0.5625           0.0117188
       71                0.75               0.625              0.5625           0.0234375
       72              0.6875              0.6875              0.5625           0.0117188
       73              0.6875               0.625               0.625           0.0117188
       74               0.875               0.875               0.875          0.00390625
       75               0.875               0.875              0.8125           0.0117188
       76               0.875               0.875                0.75           0.0117188
       77               0.875               0.875              0.6875           0.0117188
       78               0.875               0.875               0.625          0.00585938
       79               0.875               0.875               0.125          0.00292969
       80               0.875              0.8125              0.8125           0.0117188
       81               0.875              0.8125                0.75           0.0234375
       82               0.875              0.8125              0.6875           0.0234375
       83               0.875              0.8125              0.1875           0.0117188
       84               0.875                0.75                0.75           0.0117188
       85               0.875                0.75              0.6875           0.0117188
       86               0.875                0.75                0.25           0.0117188
       87              0.8125              0.8125                0.25           0.0117188
       88               0.875              0.6875              0.3125           0.0117188
       89              0.8125                0.75              0.3125           0.0234375
       90               0.875               0.625               0.375           0.0117188
       91              0.8125              0.6875               0.375           0.0234375
       92                0.75                0.75               0.375           0.0117188
       93               0.875              0.5625              0.4375           0.0117188
       94              0.8125               0.625              0.4375           0.0234375
       95                0.75              0.6875              0.4375           0.0234375
       96               0.875                 0.5                 0.5          0.00585938
       97              0.8125              0.5625                 0.5           0.0234375
       98                0.75               0.625                 0.5           0.0234375
       99              0.6875              0.6875                 0.5           0.0117188
      100                0.75              0.5625              0.5625           0.0117188
      101              0.6875               0.625              0.5625           0.0234375
      102               0.625               0.625               0.625          0.00390625
      103              0.8125              0.8125              0.8125          0.00390625
      104              0.8125              0.8125                0.75           0.0117188
      105              0.8125              0.8125              0.6875          0.00585938
      106              0.8125              0.8125              0.1875          0.00292969
      107              0.8125                0.75                0.75           0.0117188
      108              0.8125                0.75                0.25           0.0117188
      109              0.8125              0.6875              0.3125           0.0117188
      110                0.75                0.75              0.3125           0.0117188
      111              0.8125               0.625               0.375           0.0117188
      112                0.75              0.6875               0.375           0.0234375
      113              0.8125              0.5625              0.4375           0.0117188
      114                0.75               0.625              0.4375           0.0234375
      115              0.6875              0.6875              0.4375           0.0117188
      116              0.8125                 0.5                 0.5          0.00585938
      117                0.75              0.5625                 0.5           0.0234375
      118              0.6875               0.625                 0.5           0.0234375
      119              0.6875              0.5625              0.5625           0.0117188
      120               0.625               0.625              0.5625           0.0117188
      121                0.75                0.75                0.75         0.000976562
      122                0.75                0.75                0.25          0.00292969
      123                0.75              0.6875              0.3125           0.0117188
      124                0.75               0.625               0.375           0.0117188
      125              0.6875              0.6875               0.375           0.0117188
      126                0.75              0.5625              0.4375           0.0117188
      127              0.6875               0.625              0.4375           0.0234375
      128                0.75                 0.5                 0.5          0.00585938
      129              0.6875              0.5625                 0.5           0.0234375
      130               0.625               0.625                 0.5           0.0117188
      131               0.625              0.5625              0.5625           0.0117188
      132              0.6875              0.6875              0.3125          0.00292969
      133              0.6875               0.625               0.375           0.0117188
      134              0.6875              0.5625              0.4375           0.0117188
      135               0.625               0.625              0.4375           0.0117188
      136              0.6875                 0.5                 0.5          0.00585938
      137               0.625              0.5625                 0.5           0.0234375
      138              0.5625              0.5625              0.5625          0.00390625
      139               0.625               0.625               0.375          0.00292969
      140               0.625              0.5625              0.4375           0.0117188
      141               0.625                 0.5                 0.5          0.00585938
      142              0.5625              0.5625                 0.5           0.0117188
      143              0.5625              0.5625              0.4375          0.00292969
      144              0.5625                 0.5                 0.5          0.00585938
      145                 0.5                 0.5                 0.5         0.000488281
 DONE : INIT K-POINTS Time : 0.254571 (SEC)





 >>>>>>>>>>>>>>>>>>>>>>>>>>>>>>>>>>>>>>>>>>>>>>>>>>>>>>>>>>>>>>>>>>>>>>
 |                                                                    |
 | Setup plane waves:                                                 |
 | Use the energy cutoff and the lattice vectors to generate the      |
 | dimensions of FFT grid. The number of FFT grid on each processor   |
 | is 'nrxx'. The number of plane wave basis in reciprocal space is   |
 | different for charege/potential and wave functions. We also set    |
 | the 'sticks' for the parallel of FFT.                              |
 |                                                                    |
 <<<<<<<<<<<<<<<<<<<<<<<<<<<<<<<<<<<<<<<<<<<<<<<<<<<<<<<<<<<<<<<<<<<<<<





 SETUP THE PLANE WAVE BASIS
     energy cutoff for wavefunc (unit:Ry) = 75
            [fft grid for wave functions] = 32, 32, 32
          [fft grid for charge/potential] = 32, 32, 32
                      [fft grid division] = 1, 1, 1
      [big fft grid for charge/potential] = 32, 32, 32
                                     nbxx = 32768
                                     nrxx = 32768

 SETUP PLANE WAVES FOR CHARGE/POTENTIAL
                    number of plane waves = 11489
                         number of sticks = 693

 SETUP PLANE WAVES FOR WAVE FUNCTIONS
                    number of plane waves = 3589
                         number of sticks = 321

 PARALLEL PW FOR CHARGE/POTENTIAL
     PROC   COLUMNS(POT)             PW
        1            693          11489
 --------------- sum -------------------
        1            693          11489

 PARALLEL PW FOR WAVE FUNCTIONS
     PROC     COLUMNS(W)             PW
        1            321           3589
 --------------- sum -------------------
        1            321           3589

 SETUP COORDINATES OF PLANE WAVES
              number of total plane waves = 11489

 SETUP COORDINATES OF PLANE WAVES
                            number of |g| = 145
                                  max |g| = 310
                                  min |g| = 0
 DONE : INIT PLANEWAVE Time : 0.376413 (SEC)

                                     npwx = 1464

 SETUP NONLOCAL PSEUDOPOTENTIALS IN PLANE WAVE BASIS
 Si non-local projectors:
      TOTAL NUMBER OF NONLOCAL PROJECTORS = 0

 nhm = 0, not allocate some matrix. DONE : LOCAL POTENTIAL Time : 0.628334 (SEC)


 Init Non-Local PseudoPotential table : 
 Init Non-Local-Pseudopotential done.
 DONE : NON-LOCAL POTENTIAL Time : 0.628496 (SEC)

                                start_pot = atomic
 DONE : INIT POTENTIAL Time : 0.67035 (SEC)


 Make real space PAO into reciprocal space.
       max mesh points in Pseudopotential = 1601
     dq(describe PAO in reciprocal space) = 0.01
                                    max q = 1045

 number of pseudo atomic orbitals for Si is 0
 DONE : INIT BASIS Time : 6.39597 (SEC)


 -------------------------------------------
 SELF-CONSISTENT
 -------------------------------------------

 PW ALGORITHM --------------- ION=   1  ELEC=   1--------------------------------
  K-point    CG iter num      Time(Sec)
        1       6.000000       0.198474
        2       6.666667       0.232977
        3       7.250000       0.234344
        4       7.916667       0.252378
        5       7.250000       0.230814
        6       7.416667       0.247487
        7       6.500000       0.220785
        8       6.916667       0.235584
        9       6.500000       0.219590
       10       7.833333       0.258986
       11       7.083333       0.241956
       12       8.000000       0.269888
       13       7.833333       0.262213
       14       7.583333       0.253974
       15       6.833333       0.232078
       16       7.250000       0.244220
       17       7.416667       0.244507
       18       8.500000       0.275692
       19       7.083333       0.245559
       20       7.750000       0.258923
       21       7.333333       0.241675
       22       7.083333       0.236222
       23       7.333333       0.247988
       24       7.833333       0.244968
       25       8.500000       0.276489
       26       7.666667       0.254899
       27       7.583333       0.239351
       28       7.000000       0.153063
       29       7.833333       0.169107
       30       7.166667       0.219398
       31       7.333333       0.230503
       32       7.416667       0.243681
       33       7.166667       0.220864
       34       7.583333       0.227350
       35       7.750000       0.240470
       36       6.416667       0.202169
       37       6.750000       0.216967
       38       5.750000       0.183664
       39       7.583333       0.221563
       40       8.166667       0.248023
       41       7.583333       0.242210
       42       8.000000       0.251592
       43       6.583333       0.190408
       44       6.833333       0.206571
       45       7.583333       0.226773
       46       8.250000       0.271588
       47       7.916667       0.192307
       48       7.583333       0.166298
       49       7.250000       0.164571
       50       7.750000       0.174044
       51       8.250000       0.186395
       52       9.083333       0.198026
       53       7.250000       0.159453
       54       7.416667       0.167154
       55       7.166667       0.159374
       56       7.333333       0.162186
       57       7.500000       0.170542
       58       7.583333       0.169695
       59       7.416667       0.172953
       60       7.666667       0.169207
       61       7.666667       0.170412
       62       7.666667       0.242887
       63       7.833333       0.245957
       64       7.333333       0.224494
       65       6.583333       0.222074
       66       7.250000       0.223628
       67       8.250000       0.256981
       68       7.500000       0.241290
       69       8.000000       0.252192
       70       7.250000       0.230819
       71       7.583333       0.239617
       72       7.250000       0.230853
       73       7.166667       0.224180
       74       7.000000       0.222718
       75       6.666667       0.203318
       76       6.416667       0.197914
       77       6.833333       0.207532
       78       6.333333       0.187690
       79       6.916667       0.210346
       80       7.250000       0.218469
       81       6.666667       0.208843
       82       7.333333       0.218721
       83       7.583333       0.227967
       84       7.416667       0.222993
       85       8.000000       0.233603
       86       7.666667       0.219514
       87       7.416667       0.221115
       88       7.583333       0.243733
       89       8.166667       0.272213
       90       6.916667       0.229328
       91       8.333333       0.274163
       92       6.916667       0.232678
       93       7.666667       0.258799
       94       7.916667       0.260527
       95       8.000000       0.255420
       96       7.083333       0.228579
       97       7.833333       0.246178
       98       7.833333       0.262334
       99       7.333333       0.239071
      100       7.416667       0.234979
      101       7.583333       0.233646
      102       6.500000       0.167391
      103       7.333333       0.180982
      104       7.833333       0.212096
      105       7.000000       0.156162
      106       7.000000       0.160218
      107       6.916667       0.165854
      108       6.500000       0.163486
      109       7.750000       0.175845
      110       6.666667       0.157245
      111       7.250000       0.167222
      112       8.333333       0.188273
      113       6.083333       0.144018
      114       7.666667       0.211807
      115       7.416667       0.251921
      116       7.416667       0.235756
      117       7.750000       0.249482
      118       8.000000       0.275228
      119       6.916667       0.238761
      120       7.000000       0.236537
      121       6.833333       0.234347
      122       6.083333       0.212772
      123       6.833333       0.225397
      124       7.250000       0.239925
      125       7.416667       0.249898
      126       6.916667       0.228452
      127       7.916667       0.255664
      128       7.000000       0.224127
      129       6.833333       0.218641
      130       7.166667       0.235902
      131       7.166667       0.243056
      132       6.583333       0.231438
      133       6.916667       0.228891
      134       6.666667       0.223496
      135       7.416667       0.255426
      136       7.000000       0.238376
      137       7.166667       0.243363
      138       6.916667       0.215929
      139       6.666667       0.210667
      140       7.416667       0.238431
      141       7.166667       0.235364
      142       7.083333       0.249754
      143       6.500000       0.205727
      144       7.500000       0.246694
      145       6.500000       0.218720

 Density error is 0.095467414675
                          Error Threshold = 0.010000000000

       Energy                       Rydberg                            eV
   E_KohnSham               -7.995100929366             -108.778928724472
     E_Harris               -7.980765786261             -108.583889096600
      E_Fermi               +0.501781194077               +6.827083388693

 PW ALGORITHM --------------- ION=   1  ELEC=   2--------------------------------
  K-point    CG iter num      Time(Sec)
        1       2.416667       0.081773
        2       2.500000       0.086656
        3       2.000000       0.077844
        4       2.083333       0.078565
        5       2.000000       0.075231
        6       2.833333       0.103600
        7       2.000000       0.079359
        8       2.416667       0.090138
        9       2.000000       0.079318
       10       2.083333       0.076681
       11       2.000000       0.079389
       12       2.083333       0.079728
       13       2.583333       0.096519
       14       2.166667       0.084595
       15       2.750000       0.097513
       16       2.083333       0.061752
       17       2.083333       0.081361
       18       2.416667       0.098279
       19       2.000000       0.082925
       20       2.000000       0.092307
       21       2.250000       0.102138
       22       2.083333       0.096679
       23       2.000000       0.080073
       24       2.250000       0.088176
       25       2.000000       0.081776
       26       2.250000       0.090719
       27       2.333333       0.081804
       28       2.083333       0.081707
       29       2.000000       0.092750
       30       2.083333       0.060841
       31       2.000000       0.077766
       32       2.500000       0.110185
       33       2.416667       0.099859
       34       2.000000       0.093911
       35       2.000000       0.083156
       36       2.000000       0.081804
       37       2.250000       0.089669
       38       2.333333       0.097224
       39       2.166667       0.090891
       40       2.000000       0.088635
       41       2.083333       0.090466
       42       2.000000       0.089547
       43       2.166667       0.085591
       44       2.166667       0.084818
       45       2.000000       0.088246
       46       2.166667       0.097646
       47       2.000000       0.090366
       48       2.083333       0.094795
       49       2.000000       0.096516
       50       2.250000       0.102295
       51       2.083333       0.091679
       52       2.000000       0.086894
       53       2.583333       0.109151
       54       2.000000       0.088977
       55       2.250000       0.100477
       56       2.166667       0.099613
       57       2.083333       0.094246
       58       2.000000       0.090130
       59       2.000000       0.089897
       60       2.166667       0.093925
       61       2.000000       0.088259
       62       2.000000       0.087441
       63       2.166667       0.094231
       64       2.000000       0.089840
       65       2.000000       0.089294
       66       2.000000       0.088703
       67       2.166667       0.094067
       68       2.250000       0.098329
       69       2.333333       0.104023
       70       2.083333       0.094041
       71       2.166667       0.097630
       72       2.083333       0.092882
       73       2.250000       0.100922
       74       2.000000       0.096027
       75       2.333333       0.104331
       76       2.000000       0.088974
       77       2.250000       0.096021
       78       2.500000       0.104979
       79       2.083333       0.093131
       80       2.000000       0.111614
       81       2.000000       0.114575
       82       2.500000       0.100424
       83       2.250000       0.080932
       84       2.500000       0.082390
       85       2.083333       0.084356
       86       2.000000       0.100453
       87       2.500000       0.092957
       88       2.000000       0.073678
       89       2.250000       0.083042
       90       2.000000       0.074821
       91       2.166667       0.097723
       92       2.000000       0.095433
       93       2.083333       0.099215
       94       2.000000       0.090356
       95       2.166667       0.092102
       96       2.416667       0.102518
       97       2.833333       0.125028
       98       2.166667       0.100936
       99       2.000000       0.089480
      100       2.166667       0.095867
      101       2.000000       0.089020
      102       2.250000       0.098765
      103       2.416667       0.110853
      104       2.333333       0.102056
      105       2.583333       0.115911
      106       2.000000       0.087018
      107       2.583333       0.092505
      108       2.250000       0.099095
      109       2.000000       0.085299
      110       2.333333       0.085730
      111       2.000000       0.090151
      112       2.083333       0.104043
      113       2.083333       0.102656
      114       2.000000       0.098672
      115       2.000000       0.093972
      116       2.000000       0.097077
      117       2.166667       0.104406
      118       2.000000       0.100188
      119       2.333333       0.106647
      120       2.416667       0.115234
      121       2.333333       0.104783
      122       2.583333       0.117247
      123       2.000000       0.090771
      124       2.500000       0.115577
      125       2.833333       0.124324
      126       2.000000       0.095634
      127       2.333333       0.108413
      128       2.000000       0.098649
      129       2.000000       0.096535
      130       2.000000       0.094481
      131       2.000000       0.098725
      132       2.000000       0.096098
      133       2.250000       0.111777
      134       2.000000       0.096156
      135       2.166667       0.087090
      136       2.000000       0.097784
      137       2.000000       0.097409
      138       2.666667       0.125005
      139       2.166667       0.115531
      140       2.250000       0.134620
      141       2.083333       0.098260
      142       2.500000       0.095617
      143       2.000000       0.080488
      144       2.250000       0.087240
      145       2.416667       0.092845

 Density error is 0.008773169310
                          Error Threshold = 0.002386685367

       Energy                       Rydberg                            eV
   E_KohnSham               -8.009035309911             -108.968515697985
     E_Harris               -8.001358535320             -108.864067821281
      E_Fermi               +0.496505078759               +6.755298157063

 PW ALGORITHM --------------- ION=   1  ELEC=   3--------------------------------
  K-point    CG iter num      Time(Sec)
        1       2.083333       0.090534
        2       2.083333       0.086753
        3       2.916667       0.122432
        4       2.583333       0.119000
        5       2.583333       0.106266
        6       2.666667       0.106370
        7       2.750000       0.115788
        8       2.750000       0.116263
        9       2.416667       0.107732
       10       2.666667       0.115767
       11       2.916667       0.125933
       12       2.666667       0.112117
       13       2.500000       0.104992
       14       2.916667       0.116924
       15       2.750000       0.114391
       16       3.250000       0.133699
       17       2.916667       0.116355
       18       2.666667       0.113293
       19       2.583333       0.106679
       20       2.666667       0.113639
       21       2.583333       0.109788
       22       2.583333       0.110400
       23       2.500000       0.105293
       24       2.583333       0.112541
       25       2.666667       0.112207
       26       2.583333       0.109242
       27       3.333333       0.133467
       28       2.833333       0.115459
       29       2.666667       0.109622
       30       2.750000       0.111824
       31       2.000000       0.085310
       32       2.166667       0.097373
       33       2.166667       0.098099
[...]
       2       3.581125       0.011719
       3       9.003093       0.000000
       4      10.561254       0.000000
       5      16.491472       0.000000
       6      19.666787       0.000000
       7      19.931941       0.000000
       8      21.898177       0.000000
       9      32.169726       0.000000
      10      33.692093       0.000000
      11      36.453677       0.000000
      12      38.812073       0.000000

 114/145 kpoint (Cartesian) = 1.062500 1.187500 1.375000 (1437 pws)
       1      -0.549738       0.023438
       2       4.661540       0.023438
       3       7.895223       0.000000
       4      10.925761       0.000000
       5      15.229981       0.000000
       6      19.414237       0.000000
       7      20.435709       0.000000
       8      23.462944       0.000000
       9      29.506482       0.000000
      10      33.033582       0.000000
      11      37.463100       0.000000
      12      39.311051       0.000000

 115/145 kpoint (Cartesian) = 1.125000 1.125000 1.375000 (1436 pws)
       1      -0.622378       0.011719
       2       5.494487       0.011719
       3       6.921740       0.000362
       4      11.364452       0.000000
       5      14.596075       0.000000
       6      19.270186       0.000000
       7      20.473640       0.000000
       8      25.483536       0.000000
       9      27.208024       0.000000
      10      32.906595       0.000000
      11      38.088319       0.000000
      12      39.624815       0.000000

 116/145 kpoint (Cartesian) = 1.000000 1.312500 1.312500 (1442 pws)
       1       0.329789       0.005859
       2       2.723532       0.005859
       3       8.906391       0.000000
       4      10.493663       0.000000
       5      16.965716       0.000000
       6      19.452524       0.000000
       7      19.569808       0.000000
       8      21.594874       0.000000
       9      34.539522       0.000000
      10      35.898542       0.000000
      11      36.234857       0.000000
      12      36.247786       0.000000

 117/145 kpoint (Cartesian) = 1.062500 1.250000 1.312500 (1434 pws)
       1       0.451568       0.023438
       2       3.327442       0.023438
       3       7.683774       0.000000
       4      10.846161       0.000000
       5      16.028976       0.000000
       6      18.456467       0.000000
       7      19.929099       0.000000
       8      23.283662       0.000000
       9      32.289069       0.000000
      10      35.680924       0.000000
      11      35.869744       0.000000
      12      38.269156       0.000000

 118/145 kpoint (Cartesian) = 1.125000 1.187500 1.312500 (1435 pws)
       1       0.431433       0.023438
       2       4.307953       0.023438
       3       6.247464       0.023437
       4      11.546133       0.000000
       5      15.133559       0.000000
       6      18.026435       0.000000
       7      19.839770       0.000000
       8      25.878536       0.000000
       9      29.299589       0.000000
      10      35.609324       0.000000
      11      35.684764       0.000000
      12      40.169211       0.000000

 119/145 kpoint (Cartesian) = 1.125000 1.250000 1.250000 (1429 pws)
       1       1.053401       0.011719
       2       3.582677       0.011719
       3       6.077601       0.011719
       4      11.587147       0.000000
       5      15.697263       0.000000
       6      17.186455       0.000000
       7      19.684541       0.000000
       8      25.863363       0.000000
       9      31.435414       0.000000
      10      33.304837       0.000000
      11      38.046210       0.000000
      12      38.999693       0.000000

 120/145 kpoint (Cartesian) = 1.187500 1.187500 1.250000 (1432 pws)
       1       1.247432       0.011719
       2       4.201156       0.011719
       3       5.001231       0.011719
       4      11.964760       0.000000
       5      15.547581       0.000000
       6      16.670282       0.000000
       7      19.590339       0.000000
       8      28.184517       0.000000
       9      29.418729       0.000000
      10      32.729804       0.000000
      11      38.396359       0.000000
      12      40.969301       0.000000

 121/145 kpoint (Cartesian) = 1.500000 1.500000 1.500000 (1436 pws)
       1       1.171192       0.000977
       2       5.054495       0.000977
       3       5.054503       0.000977
       4       5.054514       0.000977
       5      26.581243       0.000000
       6      26.581369       0.000000
       7      26.580916       0.000000
       8      28.978551       0.000000
       9      28.980399       0.000000
      10      31.881115       0.000000
      11      31.882712       0.000000
      12      31.888201       0.000000

 122/145 kpoint (Cartesian) = 1.000000 1.000000 1.500000 (1437 pws)
       1      -2.651897       0.002930
       2       9.235298       0.000000
       3       9.605770       0.000000
       4       9.606138       0.000000
       5      13.868357       0.000000
       6      23.090336       0.000000
       7      23.269419       0.000000
       8      23.269922       0.000000
       9      23.399174       0.000000
      10      27.660476       0.000000
      11      35.927068       0.000000
      12      37.035196       0.000000

 123/145 kpoint (Cartesian) = 1.000000 1.062500 1.437500 (1435 pws)
       1      -1.797777       0.011719
       2       7.577102       0.000000
       3       8.945805       0.000000
       4       9.638665       0.000000
       5      13.455467       0.000000
       6      21.279128       0.000000
       7      22.674357       0.000000
       8      23.757543       0.000000
       9      25.811020       0.000000
      10      28.491403       0.000000
      11      37.550502       0.000000
      12      39.495401       0.000000

 124/145 kpoint (Cartesian) = 1.000000 1.125000 1.375000 (1433 pws)
       1      -0.786344       0.011719
       2       5.792124       0.011719
       3       8.467297       0.000000
       4       9.635628       0.000000
       5      13.770125       0.000000
       6      19.478299       0.000000
       7      22.197253       0.000000
       8      23.597637       0.000000
       9      28.497893       0.000000
      10      30.570477       0.000000
      11      38.726987       0.000000
      12      41.279119       0.000000

 125/145 kpoint (Cartesian) = 1.062500 1.062500 1.375000 (1429 pws)
       1      -0.867909       0.011719
       2       6.687438       0.010812
       3       7.831609       0.000000
       4       9.685947       0.000000
       5      13.096840       0.000000
       6      19.395100       0.000000
       7      22.630768       0.000000
       8      25.188526       0.000000
       9      26.647801       0.000000
      10      29.973533       0.000000
      11      39.589528       0.000000
      12      41.163087       0.000000

 126/145 kpoint (Cartesian) = 1.000000 1.187500 1.312500 (1438 pws)
       1       0.297479       0.011719
       2       4.214295       0.011719
       3       8.177914       0.000000
       4       9.553035       0.000000
       5      14.554309       0.000000
       6      17.881200       0.000000
       7      21.908346       0.000000
       8      23.389352       0.000000
       9      31.363660       0.000000
      10      33.132680       0.000000
      11      38.005999       0.000000
      12      38.794090       0.000000

 127/145 kpoint (Cartesian) = 1.062500 1.125000 1.312500 (1437 pws)
       1       0.186008       0.023438
       2       5.297074       0.023438
       3       7.191098       0.000000
       4       9.853452       0.000000
       5      13.417325       0.000000
       6      17.620897       0.000000
       7      22.288393       0.000000
       8      25.512196       0.000000
       9      28.829685       0.000000
      10      32.407910       0.000000
      11      38.302496       0.000000
      12      40.950914       0.000000

 128/145 kpoint (Cartesian) = 1.000000 1.250000 1.250000 (1436 pws)
       1       0.959570       0.005859
       2       3.383443       0.005859
       3       8.081057       0.000000
       4       9.511555       0.000000
       5      15.182728       0.000000
       6      16.994539       0.000000
       7      21.811504       0.000000
       8      23.310259       0.000000
       9      33.769240       0.000000
      10      35.353668       0.000000
      11      35.407051       0.000000
      12      36.765407       0.000000

 129/145 kpoint (Cartesian) = 1.062500 1.187500 1.250000 (1431 pws)
       1       1.158549       0.023438
       2       4.056604       0.023438
       3       6.944909       0.000331
       4       9.891381       0.000000
       5      14.173800       0.000000
       6      16.196259       0.000000
       7      22.102555       0.000000
       8      25.442700       0.000000
       9      31.570020       0.000000
      10      35.083051       0.000000
      11      35.196942       0.000000
      12      38.472839       0.000000

 130/145 kpoint (Cartesian) = 1.125000 1.125000 1.250000 (1440 pws)
       1       1.187549       0.011719
       2       4.811363       0.011719
       3       5.942211       0.011719
       4      10.319486       0.000000
       5      13.612155       0.000000
       6      15.978603       0.000000
       7      22.056964       0.000000
       8      27.700752       0.000000
       9      29.167110       0.000000
      10      34.986595       0.000000
      11      35.134413       0.000000
      12      40.647943       0.000000

 131/145 kpoint (Cartesian) = 1.125000 1.187500 1.187500 (1430 pws)
       1       1.744853       0.011719
       2       4.406850       0.011719
       3       5.532526       0.011719
       4      10.492247       0.000000
       5      14.136134       0.000000
       6      14.963436       0.000000
       7      21.969642       0.000000
       8      28.150238       0.000000
       9      30.777372       0.000000
      10      32.759173       0.000000
      11      37.404958       0.000000
      12      38.581777       0.000000

 132/145 kpoint (Cartesian) = 1.000000 1.000000 1.375000 (1417 pws)
       1      -0.951822       0.002930
       2       7.916059       0.000000
       3       8.285240       0.000000
       4       8.285303       0.000000
       5      12.446583       0.000000
       6      19.323284       0.000000
       7      25.089920       0.000000
       8      25.090321       0.000000
       9      25.214745       0.000000
      10      28.612667       0.000000
      11      40.639831       0.000000
      12      41.839646       0.000000

 133/145 kpoint (Cartesian) = 1.000000 1.062500 1.312500 (1426 pws)
       1       0.046395       0.011719
       2       6.469425       0.011719
       3       7.806420       0.000000
       4       8.477539       0.000000
       5      12.246294       0.000000
       6      17.402884       0.000000
       7      24.674355       0.000000
       8      25.592794       0.000000
       9      27.843620       0.000000
      10      30.139050       0.000000
      11      40.802504       0.000000
      12      41.399181       0.000000

 134/145 kpoint (Cartesian) = 1.000000 1.125000 1.250000 (1431 pws)
       1       1.107114       0.011719
       2       4.992118       0.011719
       3       7.517009       0.000000
       4       8.610186       0.000000
       5      12.755924       0.000000
       6      15.731716       0.000000
       7      24.387170       0.000000
       8      25.588497       0.000000
       9      30.715067       0.000000
      10      32.544991       0.000000
      11      37.355843       0.000000
      12      38.653302       0.000000

 135/145 kpoint (Cartesian) = 1.062500 1.062500 1.250000 (1433 pws)
       1       1.072282       0.011719
       2       5.838486       0.011719
       3       6.864167       0.001696
       4       8.681196       0.000000
       5      12.092596       0.000000
       6      15.590954       0.000000
       7      24.753950       0.000000
       8      27.409195       0.000000
       9      28.743183       0.000000
      10      31.971726       0.000000
      11      37.753048       0.000000
      12      40.393620       0.000000

 136/145 kpoint (Cartesian) = 1.000000 1.187500 1.187500 (1442 pws)
       1       1.743016       0.005859
       2       4.208282       0.005859
       3       7.420058       0.000000
       4       8.631526       0.000000
       5      13.362464       0.000000
       6      14.768010       0.000000
       7      24.290370       0.000000
       8      25.553763       0.000000
       9      33.143011       0.000000
      10      34.655398       0.000000
      11      34.729782       0.000000
      12      36.368011       0.000000

 137/145 kpoint (Cartesian) = 1.062500 1.125000 1.187500 (1433 pws)
       1       1.993765       0.023438
       2       4.912942       0.023438
       3       6.427478       0.023437
       4       8.928648       0.000000
       5      12.578926       0.000000
       6      14.134460       0.000000
       7      24.608492       0.000000
       8      27.838990       0.000000
       9      31.045352       0.000000
      10      34.492288       0.000000
      11      34.677464       0.000000
      12      37.844744       0.000000

 138/145 kpoint (Cartesian) = 1.125000 1.125000 1.125000 (1433 pws)
       1       2.420238       0.003906
       2       5.351671       0.003906
       3       5.351691       0.003906
       4       9.234744       0.000000
       5      13.017708       0.000000
       6      13.017769       0.000000
       7      24.552191       0.000000
       8      30.297719       0.000000
       9      30.297466       0.000000
      10      32.691944       0.000000
      11      36.933078       0.000000
      12      36.930734       0.000000

 139/145 kpoint (Cartesian) = 1.000000 1.000000 1.250000 (1421 pws)
       1       1.022636       0.002930
       2       6.991305       0.000007
       3       7.327362       0.000000
       4       7.327478       0.000000
       5      11.430021       0.000000
       6      15.465474       0.000000
       7      27.311515       0.000000
       8      27.312173       0.000000
       9      27.424122       0.000000
      10      30.460620       0.000000
      11      40.306057       0.000000
      12      40.365199       0.000000

 140/145 kpoint (Cartesian) = 1.000000 1.062500 1.187500 (1425 pws)
       1       2.044728       0.011719
       2       5.850086       0.011719
       3       7.037764       0.000003
       4       7.646186       0.000000
       5      11.433415       0.000000
       6      13.803344       0.000000
       7      27.079428       0.000000
       8      27.936303       0.000000
       9      30.243053       0.000000
      10      32.209137       0.000000
      11      36.883781       0.000000
      12      37.893888       0.000000

 141/145 kpoint (Cartesian) = 1.000000 1.125000 1.125000 (1428 pws)
       1       2.638405       0.005859
       2       5.154466       0.005859
       3       6.940950       0.000095
       4       7.795888       0.000000
       5      11.881862       0.000000
       6      12.819093       0.000000
       7      26.983392       0.000000
       8      28.013342       0.000000
       9      32.685308       0.000000
      10      34.154243       0.000000
      11      34.240993       0.000000
      12      35.758486       0.000000

 142/145 kpoint (Cartesian) = 1.062500 1.062500 1.125000 (1428 pws)
       1       2.868101       0.011719
       2       5.714381       0.011719
       3       6.279951       0.011719
       4       7.893032       0.000000
       5      11.488670       0.000000
       6      12.402311       0.000000
       7      27.308191       0.000000
       8      30.008269       0.000000
       9      31.037110       0.000000
      10      34.093278       0.000000
      11      34.283413       0.000000
      12      36.643154       0.000000

 143/145 kpoint (Cartesian) = 1.000000 1.000000 1.125000 (1432 pws)
       1       3.000059       0.002930
       2       6.534814       0.002929
       3       6.748039       0.002099
       4       6.748047       0.002098
       5      10.820097       0.000000
       6      12.210421       0.000000
       7      29.912249       0.000000
       8      29.911916       0.000000
       9      30.003103       0.000000
      10      32.528476       0.000000
      11      36.548467       0.000000
      12      36.579895       0.000000

 144/145 kpoint (Cartesian) = 1.000000 1.062500 1.062500 (1444 pws)
       1       3.525891       0.005859
       2       6.084545       0.005859
       3       6.651210       0.005703
       4       6.990530       0.000013
       5      10.935344       0.000000
       6      11.287094       0.000000
       7      29.860664       0.000000
       8      30.520456       0.000000
       9      32.406591       0.000000
      10      33.854861       0.000000
      11      33.943405       0.000000
      12      34.871446       0.000000

 145/145 kpoint (Cartesian) = 1.000000 1.000000 1.000000 (1464 pws)
       1       3.991437       0.000488
       2       6.554263       0.000488
       3       6.554275       0.000488
       4       6.554284       0.000488
       5      10.616599       0.000000
       6      10.616640       0.000000
       7      32.312910       0.000000
       8      32.313817       0.000000
       9      32.313725       0.000000
      10      33.750273       0.000000
      11      33.751330       0.000000
      12      33.842767       0.000000



 --------------------------------------------
 !FINAL_ETOT_IS -108.9704558349545920 eV
 --------------------------------------------






  |CLASS_NAME---------|NAME---------------|TIME(Sec)-----|CALLS----|AVG------|PER%-------
                                      total         78.279        17      4.60    100.00%
                 Run_pw     plane_wave_line          78.25         1     78.25     99.97%
               PW_Basis              gen_pw           0.12         1      0.12      0.15%
                Cell_PW        opt_cells_pw          77.87         1     77.87     99.48%
                    FFT               FFT3D          49.46     61772      0.00     63.18%
               wavefunc             wfcinit           5.73         1      5.73      7.31%
              Hamilt_PW      diagH_subspace          12.59       435      0.03     16.09%
              Hamilt_PW               h_psi          60.10     23483      0.00     76.78%
              Hamilt_PW                vloc          59.37     23483      0.00     75.84%
                 Hamilt        diagH_LAPACK           0.22       435      0.00      0.28%
                   Ions         opt_ions_pw          71.86         1     71.86     91.80%
              Electrons     self_consistent          71.86         1     71.86     91.80%
              Electrons             c_bands          35.16         2     17.58     44.92%
                 Hamilt            diagH_pw          65.02       435      0.15     83.06%
               Diago_CG                diag          56.49       435      0.13     72.16%
              electrons             c_bands          16.65         2      8.33     21.27%
                 Charge            sum_band           6.15         3      2.05      7.85%
 ----------------------------------------------------------------------------------------

 CLASS_NAME---------|NAME---------------|MEMORY(MB)--------
                                         48.9723
             wavefunc                 evc        38.8696
         Charge_Pulay                Rrho         2.0000
         Charge_Pulay               dRrho         1.7500
         Charge_Pulay                drho         1.7500
 ----------------------------------------------------------

 Start  Time  : Fri Sep 10 11:34:30 2021
 Finish Time  : Fri Sep 10 11:35:48 2021
 Total  Time  : 0 h 1 mins 18 secs 
