                                                                                     
                             WELCOME TO ABACUS                                       
                                                                                     
               'Atomic-orbital Based Ab-initio Computation at UStc'                  
                                                                                     
                     Website: http://abacus.ustc.edu.cn/                             
                                                                                     
    Version: Parallel, in development
    Processor Number is 16
    Start Time is Wed Sep 22 11:28:44 2021
                                                                                     
 ------------------------------------------------------------------------------------

 READING GENERAL INFORMATION
                           global_out_dir = OUT.stack/
                           global_in_card = INPUT
                               pseudo_dir = ./
                              orbital_dir = ./
                              pseudo_type = blps
                                    DRANK = 1
                                    DSIZE = 16
                                   DCOLOR = 1
                                    GRANK = 1
                                    GSIZE = 1




 >>>>>>>>>>>>>>>>>>>>>>>>>>>>>>>>>>>>>>>>>>>>>>>>>>>>>>>>>>>>>>>>>>>>>>
 |                                                                    |
 | Reading atom information in unitcell:                              |
 | From the input file and the structure file we know the number of   |
 | different elments in this unitcell, then we list the detail        |
 | information for each element, especially the zeta and polar atomic |
 | orbital number for each element. The total atom number is counted. |
 | We calculate the nearest atom distance for each atom and show the  |
 | Cartesian and Direct coordinates for each atom. We list the file   |
 | address for atomic orbitals. The volume and the lattice vectors    |
 | in real and reciprocal space is also shown.                        |
 |                                                                    |
 <<<<<<<<<<<<<<<<<<<<<<<<<<<<<<<<<<<<<<<<<<<<<<<<<<<<<<<<<<<<<<<<<<<<<<




 READING UNITCELL INFORMATION
                                    ntype = 1
                 atom label for species 1 = Al
                  lattice constant (Bohr) = 7.50241
              lattice constant (Angstrom) = 3.9701

 READING ATOM TYPE 1
                               atom label = Al
                      L=0, number of zeta = 1
                      L=1, number of zeta = 1
                      L=2, number of zeta = 1
             number of atom for this type = 21
                      start magnetization = FALSE
                      start magnetization = FALSE
                      start magnetization = FALSE
                      start magnetization = FALSE
                      start magnetization = FALSE
                      start magnetization = FALSE
                      start magnetization = FALSE
                      start magnetization = FALSE
                      start magnetization = FALSE
                      start magnetization = FALSE
                      start magnetization = FALSE
                      start magnetization = FALSE
                      start magnetization = FALSE
                      start magnetization = FALSE
                      start magnetization = FALSE
                      start magnetization = FALSE
                      start magnetization = FALSE
                      start magnetization = FALSE
                      start magnetization = FALSE
                      start magnetization = FALSE
                      start magnetization = FALSE

                        TOTAL ATOM NUMBER = 21

 DIRECT COORDINATES
         atom                   x                   y                   z                 mag                  vx                  vy                  vz
     taud_Al1                   0                   0                   0                   0                   0                   0                   0
     taud_Al2            0.333333            0.333333            0.047619                   0                   0                   0                   0
     taud_Al3            0.666667            0.666667           0.0952381                   0                   0                   0                   0
     taud_Al4                   0                   0            0.142857                   0                   0                   0                   0
     taud_Al5            0.333333            0.333333            0.190476                   0                   0                   0                   0
     taud_Al6            0.666667            0.666667            0.238095                   0                   0                   0                   0
     taud_Al7                   0                   0            0.285714                   0                   0                   0                   0
     taud_Al8            0.333333            0.333333            0.333333                   0                   0                   0                   0
     taud_Al9            0.666667            0.666667            0.380952                   0                   0                   0                   0
    taud_Al10                   0                   0            0.428571                   0                   0                   0                   0
    taud_Al11            0.333333            0.333333             0.47619                   0                   0                   0                   0
    taud_Al12            0.666667            0.666667             0.52381                   0                   0                   0                   0
    taud_Al13                   0                   0            0.571429                   0                   0                   0                   0
    taud_Al14            0.333333            0.333333            0.619048                   0                   0                   0                   0
    taud_Al15            0.666667            0.666667            0.666667                   0                   0                   0                   0
    taud_Al16                   0                   0            0.714286                   0                   0                   0                   0
    taud_Al17            0.333333            0.333333            0.761905                   0                   0                   0                   0
    taud_Al18            0.666667            0.666667            0.809524                   0                   0                   0                   0
    taud_Al19                   0                   0            0.857143                   0                   0                   0                   0
    taud_Al20            0.333333            0.333333            0.904762                   0                   0                   0                   0
    taud_Al21            0.666667            0.666667            0.952381                   0                   0                   0                   0


                          Volume (Bohr^3) = 2216.98
                             Volume (A^3) = 328.522

 Lattice vectors: (Cartesian coordinate: in unit of a_0)
            +0.707107                  +0                  +0
            +0.353553           +0.612372                  +0
                   +0                  +0            +12.1244
 Reciprocal vectors: (Cartesian coordinate: in unit of 2 pi/a_0)
             +1.41421           -0.816497                  +0
                   -0            +1.63299                  -0
                   +0                  -0          +0.0824786




 >>>>>>>>>>>>>>>>>>>>>>>>>>>>>>>>>>>>>>>>>>>>>>>>>>>>>>>>>>>>>>>>>>>>>>
 |                                                                    |
 | Reading pseudopotentials files:                                    |
 | The pseudopotential file is in UPF format. The 'NC' indicates that |
 | the type of pseudopotential is 'norm conserving'. Functional of    |
 | exchange and correlation is decided by 4 given parameters in UPF   |
 | file.  We also read in the 'core correction' if there exists.      |
 | Also we can read the valence electrons number and the maximal      |
 | angular momentum used in this pseudopotential. We also read in the |
 | trail wave function, trail atomic density and local-pseudopotential|
 | on logrithmic grid. The non-local pseudopotential projector is also|
 | read in if there is any.                                           |
 |                                                                    |
 <<<<<<<<<<<<<<<<<<<<<<<<<<<<<<<<<<<<<<<<<<<<<<<<<<<<<<<<<<<<<<<<<<<<<<




                PAO radial cut off (Bohr) = 16

 Read in pseudopotential file is al.lda.lps
                     pseudopotential type = 
                            functional Ex = LDA
                            functional Ec = LDA
                          functional GCEx = NOGX
                          functional GCEc = NOGC
                 nonlocal core correction = 0
                        valence electrons = 3
                                     lmax = 0
                           number of zeta = 0
                     number of projectors = 0
     initial pseudo atomic orbital number = 0
                                   NLOCAL = 189

 SETUP THE ELECTRONS NUMBER
            electron number of element Al = 3
      total electron number of element Al = 63
                           occupied bands = 32
                                   NBANDS = 120
 DONE : SETUP UNITCELL Time : 0.010067 (SEC)





 >>>>>>>>>>>>>>>>>>>>>>>>>>>>>>>>>>>>>>>>>>>>>>>>>>>>>>>>>>>>>>>>>>>>>>
 |                                                                    |
 | Doing symmetry analysis:                                           |
 | We calculate the norm of 3 vectors and the angles between them,    |
 | the type of Bravais lattice is given. We can judge if the unticell |
 | is a primitive cell. Finally we give the point group operation for |
 | this unitcell. We we use the point group operations to do symmetry |
 | analysis on given k-point mesh and the charge density.             |
 |                                                                    |
 <<<<<<<<<<<<<<<<<<<<<<<<<<<<<<<<<<<<<<<<<<<<<<<<<<<<<<<<<<<<<<<<<<<<<<




 LATTICE VECTORS: (CARTESIAN COORDINATE: IN UNIT OF A0)
            +0.707107                  +0                  +0
            +0.353553           +0.612372                  +0
                   +0                  +0            +12.1244
                       right hand lattice = 1
                                   NORM_A = 0.707107
                                   NORM_B = 0.707107
                                   NORM_C = 12.1244
                           ALPHA (DEGREE) = 60
                           BETA  (DEGREE) = 90
                           GAMMA (DEGREE) = 90
                             BRAVAIS TYPE = 4
                     BRAVAIS LATTICE NAME = 04. Hexagonal cell
 STANDARD LATTICE VECTORS: (CARTESIAN COORDINATE: IN UNIT OF A0)
            +0.707107                  +0                  +0
            +0.353553           +0.612372                  +0
                   +0                  +0            +12.1244
                                    IBRAV = 4
                                  BRAVAIS = HEXAGONAL CELL
                       LATTICE CONSTANT A = 36.4623
                                C/A RATIO = 0.667011
                                    ibrav = 4
                        ROTATION MATRICES = 24
              PURE POINT GROUP OPERATIONS = 4
                   SPACE GROUP OPERATIONS = 4
                                       C2 = 1
                                       C3 = 0
                                       C4 = 0
                                       C6 = 0
                                       S1 = 1
                                       S3 = 0
                                       S4 = 0
                                       S6 = 0
                              POINT GROUP = C_2h
 DONE : SYMMETRY Time : 0.0472102 (SEC)





 >>>>>>>>>>>>>>>>>>>>>>>>>>>>>>>>>>>>>>>>>>>>>>>>>>>>>>>>>>>>>>>>>>>>>>
 |                                                                    |
 | Setup K-points                                                     |
 | We setup the k-points according to input parameters.               |
 | The reduced k-points are set according to symmetry operations.     |
 | We treat the spin as another set of k-points.                      |
 |                                                                    |
 <<<<<<<<<<<<<<<<<<<<<<<<<<<<<<<<<<<<<<<<<<<<<<<<<<<<<<<<<<<<<<<<<<<<<<





 SETUP K-POINTS
                                    nspin = 1
                   Input type of k points = Monkhorst-Pack(Gamma)
                                   nkstot = 100
                               nkstot_ibz = 31
      IBZ             DirectX             DirectY             DirectZ              Weight    ibz2bz
        1                   0                   0                   0                0.01         0
        2                 0.9                   0                   0                0.04         1
        3                 0.8                   0                   0                0.04         2
        4                 0.7                   0                   0                0.04         3
        5                 0.6                   0                   0                0.04         4
        6                   0                 0.5                   0                0.02         5
        7                 0.9                 0.9                   0                0.02        11
        8                 0.9                 0.8                   0                0.04        12
        9                 0.9                 0.7                   0                0.04        13
       10                 0.9                 0.6                   0                0.04        14
       11                 0.9                 0.5                   0                0.04        15
       12                 0.9                 0.4                   0                0.04        16
       13                 0.9                 0.3                   0                0.04        17
       14                 0.9                 0.2                   0                0.04        18
       15                 0.1                 0.9                   0                0.02        19
       16                 0.8                 0.8                   0                0.02        22
       17                 0.8                 0.7                   0                0.04        23
       18                 0.8                 0.6                   0                0.04        24
       19                 0.8                 0.5                   0                0.04        25
       20                 0.8                 0.4                   0                0.04        26
       21                 0.8                 0.3                   0                0.04        27
       22                 0.2                 0.8                   0                0.02        28
       23                 0.7                 0.7                   0                0.02        33
       24                 0.7                 0.6                   0                0.04        34
       25                 0.7                 0.5                   0                0.04        35
       26                 0.7                 0.4                   0                0.04        36
       27                 0.3                 0.7                   0                0.02        37
       28                 0.6                 0.6                   0                0.02        44
       29                 0.6                 0.5                   0                0.04        45
       30                 0.4                 0.6                   0                0.02        46
       31                 0.5                 0.5                   0                0.01        55
                               nkstot now = 31

  KPOINTS            DIRECT_X            DIRECT_Y            DIRECT_Z              WEIGHT
        1                   0                   0                   0                0.01
        2                 0.9                   0                   0                0.04
        3                 0.8                   0                   0                0.04
        4                 0.7                   0                   0                0.04
        5                 0.6                   0                   0                0.04
        6                   0                 0.5                   0                0.02
        7                 0.9                 0.9                   0                0.02
        8                 0.9                 0.8                   0                0.04
        9                 0.9                 0.7                   0                0.04
       10                 0.9                 0.6                   0                0.04
       11                 0.9                 0.5                   0                0.04
       12                 0.9                 0.4                   0                0.04
       13                 0.9                 0.3                   0                0.04
       14                 0.9                 0.2                   0                0.04
       15                 0.1                 0.9                   0                0.02
       16                 0.8                 0.8                   0                0.02
       17                 0.8                 0.7                   0                0.04
       18                 0.8                 0.6                   0                0.04
       19                 0.8                 0.5                   0                0.04
       20                 0.8                 0.4                   0                0.04
       21                 0.8                 0.3                   0                0.04
       22                 0.2                 0.8                   0                0.02
       23                 0.7                 0.7                   0                0.02
       24                 0.7                 0.6                   0                0.04
       25                 0.7                 0.5                   0                0.04
       26                 0.7                 0.4                   0                0.04
       27                 0.3                 0.7                   0                0.02
       28                 0.6                 0.6                   0                0.02
       29                 0.6                 0.5                   0                0.04
       30                 0.4                 0.6                   0                0.02
       31                 0.5                 0.5                   0                0.01

           k-point number in this process = 31
       minimum distributed K point number = 31

  KPOINTS         CARTESIAN_X         CARTESIAN_Y         CARTESIAN_Z              WEIGHT
        1                   0                   0                   0                0.02
        2             1.27279           -0.734847                   0                0.08
        3             1.13137           -0.653197                   0                0.08
        4            0.989949           -0.571548                   0                0.08
        5            0.848528           -0.489898                   0                0.08
        6                   0            0.816497                   0                0.04
        7             1.27279            0.734847                   0                0.04
        8             1.27279            0.571548                   0                0.08
        9             1.27279            0.408248                   0                0.08
       10             1.27279            0.244949                   0                0.08
       11             1.27279           0.0816497                   0                0.08
       12             1.27279          -0.0816497                   0                0.08
       13             1.27279           -0.244949                   0                0.08
       14             1.27279           -0.408248                   0                0.08
       15            0.141421             1.38804                   0                0.04
       16             1.13137            0.653197                   0                0.04
       17             1.13137            0.489898                   0                0.08
       18             1.13137            0.326599                   0                0.08
       19             1.13137            0.163299                   0                0.08
       20             1.13137                   0                   0                0.08
       21             1.13137           -0.163299                   0                0.08
       22            0.282843              1.1431                   0                0.04
       23            0.989949            0.571548                   0                0.04
       24            0.989949            0.408248                   0                0.08
       25            0.989949            0.244949                   0                0.08
       26            0.989949           0.0816497                   0                0.08
       27            0.424264            0.898146                   0                0.04
       28            0.848528            0.489898                   0                0.04
       29            0.848528            0.326599                   0                0.08
       30            0.565685            0.653197                   0                0.04
       31            0.707107            0.408248                   0                0.02

  KPOINTS            DIRECT_X            DIRECT_Y            DIRECT_Z              WEIGHT
        1                   0                   0                   0                0.02
        2                 0.9                   0                   0                0.08
        3                 0.8                   0                   0                0.08
        4                 0.7                   0                   0                0.08
        5                 0.6                   0                   0                0.08
        6                   0                 0.5                   0                0.04
        7                 0.9                 0.9                   0                0.04
        8                 0.9                 0.8                   0                0.08
        9                 0.9                 0.7                   0                0.08
       10                 0.9                 0.6                   0                0.08
       11                 0.9                 0.5                   0                0.08
       12                 0.9                 0.4                   0                0.08
       13                 0.9                 0.3                   0                0.08
       14                 0.9                 0.2                   0                0.08
       15                 0.1                 0.9                   0                0.04
       16                 0.8                 0.8                   0                0.04
       17                 0.8                 0.7                   0                0.08
       18                 0.8                 0.6                   0                0.08
       19                 0.8                 0.5                   0                0.08
       20                 0.8                 0.4                   0                0.08
       21                 0.8                 0.3                   0                0.08
       22                 0.2                 0.8                   0                0.04
       23                 0.7                 0.7                   0                0.04
       24                 0.7                 0.6                   0                0.08
       25                 0.7                 0.5                   0                0.08
       26                 0.7                 0.4                   0                0.08
       27                 0.3                 0.7                   0                0.04
       28                 0.6                 0.6                   0                0.04
       29                 0.6                 0.5                   0                0.08
       30                 0.4                 0.6                   0                0.04
       31                 0.5                 0.5                   0                0.02
 DONE : INIT K-POINTS Time : 0.0515311 (SEC)





 >>>>>>>>>>>>>>>>>>>>>>>>>>>>>>>>>>>>>>>>>>>>>>>>>>>>>>>>>>>>>>>>>>>>>>
 |                                                                    |
 | Setup plane waves:                                                 |
 | Use the energy cutoff and the lattice vectors to generate the      |
 | dimensions of FFT grid. The number of FFT grid on each processor   |
 | is 'nrxx'. The number of plane wave basis in reciprocal space is   |
 | different for charege/potential and wave functions. We also set    |
 | the 'sticks' for the parallel of FFT.                              |
 |                                                                    |
 <<<<<<<<<<<<<<<<<<<<<<<<<<<<<<<<<<<<<<<<<<<<<<<<<<<<<<<<<<<<<<<<<<<<<<





 SETUP THE PLANE WAVE BASIS
     energy cutoff for wavefunc (unit:Ry) = 40
            [fft grid for wave functions] = 24, 24, 375
          [fft grid for charge/potential] = 24, 24, 375
                      [fft grid division] = 1, 1, 1
      [big fft grid for charge/potential] = 24, 24, 375
                                     nbxx = 13824
                                     nrxx = 13824

 SETUP PLANE WAVES FOR CHARGE/POTENTIAL
                    number of plane waves = 76123
                         number of sticks = 313

 SETUP PLANE WAVES FOR WAVE FUNCTIONS
                    number of plane waves = 16155
                         number of sticks = 109

 PARALLEL PW FOR CHARGE/POTENTIAL
     PROC   COLUMNS(POT)             PW
        1             20           4754
        2             19           4739
        3             20           4784
        4             19           4739
        5             20           4752
        6             20           4752
        7             20           4786
        8             20           4786
        9             20           4786
       10             19           4737
       11             19           4739
       12             19           4737
       13             19           4739
       14             20           4774
       15             20           4782
       16             19           4737
 --------------- sum -------------------
       16            313          76123

 PARALLEL PW FOR WAVE FUNCTIONS
     PROC     COLUMNS(W)             PW
        1              6            984
        2              7           1003
        3              7           1017
        4              7           1017
        5              7           1017
        6              7           1017
        7              7           1017
        8              7           1007
        9              7           1007
       10              7           1039
       11              7           1039
       12              6            976
       13              6            982
       14              7           1019
       15              7           1013
       16              7           1001
 --------------- sum -------------------
       16            109          16155

 SETUP COORDINATES OF PLANE WAVES
              number of total plane waves = 76123

 SETUP COORDINATES OF PLANE WAVES
                            number of |g| = 1747
                                  max |g| = 228.109
                                  min |g| = 0
 DONE : INIT PLANEWAVE Time : 0.182271 (SEC)

                                     npwx = 764

 SETUP NONLOCAL PSEUDOPOTENTIALS IN PLANE WAVE BASIS
 Al non-local projectors:
      TOTAL NUMBER OF NONLOCAL PROJECTORS = 0

 nhm = 0, not allocate some matrix. DONE : LOCAL POTENTIAL Time : 0.330903 (SEC)


 Init Non-Local PseudoPotential table : 
 Init Non-Local-Pseudopotential done.
 DONE : NON-LOCAL POTENTIAL Time : 0.330931 (SEC)

                                start_pot = atomic
 DONE : INIT POTENTIAL Time : 0.491095 (SEC)


 Make real space PAO into reciprocal space.
       max mesh points in Pseudopotential = 1601
     dq(describe PAO in reciprocal space) = 0.01
                                    max q = 764

 number of pseudo atomic orbitals for Al is 0
 DONE : INIT BASIS Time : 5.66755 (SEC)


 -------------------------------------------
 SELF-CONSISTENT
 -------------------------------------------

 PW ALGORITHM --------------- ION=   1  ELEC=   1--------------------------------
  K-point    CG iter num      Time(Sec)
        1       8.500000       0.596363
        2       8.850000       0.641194
        3       9.041667       0.653273
        4       8.975000       0.636598
        5       9.008333       0.629305
        6       8.850000       0.641170
        7       8.916667       0.650519
        8       8.550000       0.621746
        9       8.816667       0.634852
       10       8.925000       0.632801
       11       8.891667       0.632348
       12       9.075000       0.650446
       13       8.941667       0.639494
       14       8.925000       0.640317
       15       8.583333       0.635205
       16       8.816667       0.644695
       17       8.858333       0.645293
       18       8.641667       0.614032
       19       8.791667       0.625029
       20       8.783333       0.624064
       21       8.950000       0.633781
       22       8.900000       0.647944
       23       9.016667       0.645721
       24       8.983333       0.637743
       25       9.100000       0.642026
       26       8.750000       0.617785
       27       8.816667       0.640301
       28       8.850000       0.634590
       29       8.866667       0.627544
       30       8.808333       0.634985
       31       9.000000       0.639976

 Density error is 1.791524689756
                          Error Threshold = 0.010000000000

       Energy                       Rydberg                            eV
   E_KohnSham              -89.068324193369            -1211.836720341069
     E_Harris              -89.442806684385            -1216.931816020127
      E_Fermi               +0.623234007412               +8.479533688183

 PW ALGORITHM --------------- ION=   1  ELEC=   2--------------------------------
  K-point    CG iter num      Time(Sec)
        1       2.650000       0.235031
        2       2.516667       0.225907
        3       2.358333       0.225577
        4       2.208333       0.200515
        5       2.025000       0.184737
        6       2.066667       0.191873
        7       2.650000       0.239435
        8       2.450000       0.221888
        9       2.291667       0.210261
       10       2.250000       0.203879
       11       2.150000       0.196358
       12       2.141667       0.198285
       13       2.258333       0.205553
       14       2.416667       0.217908
       15       2.416667       0.222643
       16       2.266667       0.209105
       17       2.316667       0.210717
       18       2.300000       0.208338
       19       2.208333       0.200405
       20       2.116667       0.192282
       21       2.250000       0.204516
       22       2.316667       0.213100
       23       2.150000       0.197041
       24       2.208333       0.202193
       25       2.183333       0.197567
       26       2.358333       0.213848
       27       2.300000       0.212070
       28       2.166667       0.199100
       29       2.183333       0.200130
       30       2.100000       0.193063
       31       2.066667       0.189191

 Density error is 4.701298350459
                          Error Threshold = 0.002843689984

       Energy                       Rydberg                            eV
   E_KohnSham              -84.876567197994            -1154.804940572607
     E_Harris              -89.344612154120            -1215.595810896092
      E_Fermi               +0.609955209090               +8.298866368411

 PW ALGORITHM --------------- ION=   1  ELEC=   3--------------------------------
  K-point    CG iter num      Time(Sec)
        1      23.500000       1.565439
        2      24.825000       1.713193
        3      24.808333       1.714068
        4      25.541667       1.752579
        5      25.966667       1.780480
        6      25.683333       1.805491
        7      24.683333       1.719735
        8      24.825000       1.726070
        9      25.291667       1.759251
       10      26.075000       1.787795
       11      26.033333       1.801949
       12      25.891667       1.813581
       13      26.141667       1.812581
       14      25.191667       1.734283
       15      24.583333       1.747271
       16      25.425000       1.784341
       17      25.150000       1.747315
       18      25.891667       1.771875
       19      25.258333       1.739009
       20      25.450000       1.752297
       21      26.041667       1.794227
       22      26.400000       1.851344
       23      26.116667       1.813273
       24      25.983333       1.796593
       25      25.783333       1.772898
       26      25.583333       1.763030
       27      25.725000       1.828900
       28      26.233333       1.825659
       29      26.025000       1.792848
       30      25.658333       1.803421
       31      25.358333       1.757192

 Density error is 9509.743552912731
                          Error Threshold = 0.002843689984

       Energy                       Rydberg                            eV
   E_KohnSham             -187.815980016929            -2555.367503684364
     E_Harris             -405.065512574702            -5511.199034306603
      E_Fermi               -3.798282049552              -51.678278485031

 PW ALGORITHM --------------- ION=   1  ELEC=   4--------------------------------
  K-point    CG iter num      Time(Sec)
        1      10.116667       0.743264
        2      12.316667       0.915081
        3      14.283333       1.046405
        4      14.375000       1.036433
        5      14.691667       1.049573
        6      14.100000       1.043652
        7      12.358333       0.927035
        8      13.391667       1.010119
        9      14.966667       1.089226
       10      15.083333       1.101062
       11      15.041667       1.086941
       12      15.500000       1.126986
       13      14.925000       1.079207
       14      14.941667       1.086881
       15      13.525000       1.027137
       16      14.250000       1.058609
       17      14.666667       1.066422
       18      14.633333       1.046134
       19      15.608333       1.107406
       20      14.941667       1.063079
       21      15.625000       1.112361
       22      14.916667       1.100622
       23      14.608333       1.059673
       24      15.300000       1.097165
       25      15.208333       1.076615
       26      13.841667       0.989292
       27      14.008333       1.033841
       28      14.283333       1.045651
       29      15.116667       1.082123
       30      15.066667       1.099492
       31      14.158333       1.038176

 Density error is 5651.794043910515
                          Error Threshold = 0.002843689984

       Energy                       Rydberg                            eV
   E_KohnSham              -98.943363694441            -1346.193525530729
     E_Harris             -209.967105280817            -2856.749024384997
      E_Fermi               -1.004916865109              -13.672595381781

 PW ALGORITHM --------------- ION=   1  ELEC=   5--------------------------------
  K-point    CG iter num      Time(Sec)
        1      11.666667       0.820876
        2      13.991667       0.991745
        3      13.591667       0.963793
        4      12.550000       0.891082
        5      11.791667       0.849544
        6      11.475000       0.842878
        7      13.625000       0.985388
        8      13.216667       0.954168
        9      13.316667       0.951998
       10      12.608333       0.899711
       11      12.550000       0.899406
       12      12.425000       0.902228
       13      12.558333       0.911809
       14      13.533333       0.964664
       15      12.516667       0.917318
       16      13.066667       0.944420
       17      13.408333       1.012627
       18      12.408333       0.889985
       19      12.233333       0.875119
       20      12.000000       0.861029
       21      12.158333       0.868515
       22      12.250000       0.904429
       23      13.125000       0.940430
       24      12.458333       0.891433
       25      12.066667       0.860097
       26      11.675000       0.839462
       27      11.383333       0.845495
       28      11.716667       0.861125
       29      12.558333       0.900270
       30      11.833333       0.867975
       31      11.516667       0.836135

 Density error is 2066.063561940748
                          Error Threshold = 0.002843689984

       Energy                       Rydberg                            eV
   E_KohnSham              -83.806562150929            -1140.246775043765
     E_Harris             -111.382446745215            -1515.435932916485
      E_Fermi               +0.364526058072               +4.959631459259

 PW ALGORITHM --------------- ION=   1  ELEC=   6--------------------------------
  K-point    CG iter num      Time(Sec)
        1       9.675000       0.696006
        2      11.000000       0.815303
        3       9.791667       0.734457
        4       8.450000       0.635375
        5       7.975000       0.606489
        6       7.891667       0.616923
        7      10.908333       0.820931
        8      10.175000       0.761900
        9       9.808333       0.741494
       10       9.766667       0.727402
       11       8.691667       0.661751
       12       8.291667       0.642666
       13       9.358333       0.709992
       14       9.783333       0.737564
       15      10.741667       0.822297
       16       9.950000       0.756674
       17      10.141667       0.764986
       18       9.050000       0.685143
       19       9.075000       0.684860
       20       8.600000       0.653808
       21       9.066667       0.687262
       22       9.208333       0.717822
       23       8.950000       0.678749
       24       9.391667       0.708669
       25       8.833333       0.668121
       26       7.725000       0.589543
       27       7.491667       0.588984
       28       8.150000       0.633649
       29       8.508333       0.647976
       30       8.525000       0.670827
       31       7.883333       0.609824

 Density error is 146.024757981990
                          Error Threshold = 0.002843689984

       Energy                       Rydberg                            eV
   E_KohnSham              -87.178593332053            -1186.125612940733
     E_Harris              -91.422614249449            -1243.868479848496
      E_Fermi               +0.595008025803               +8.095499506658

 PW ALGORITHM --------------- ION=   1  ELEC=   7--------------------------------
  K-point    CG iter num      Time(Sec)
        1       5.675000       0.444939
        2       6.441667       0.515582
        3       4.800000       0.399803
        4       4.000000       0.331562
        5       3.900000       0.326918
        6       3.533333       0.303763
        7       6.316667       0.514201
        8       4.858333       0.404910
        9       4.333333       0.364362
       10       3.933333       0.332341
       11       3.866667       0.329961
       12       3.725000       0.321065
       13       3.950000       0.336734
       14       4.308333       0.361129
       15       4.500000       0.384703
       16       4.550000       0.387663
       17       4.341667       0.366707
       18       3.600000       0.306073
       19       3.458333       0.295512
       20       3.291667       0.284223
       21       3.608333       0.307321
       22       3.800000       0.328985
       23       3.991667       0.334885
       24       3.800000       0.323022
       25       3.400000       0.289537
       26       3.083333       0.269462
       27       3.016667       0.268520
       28       3.833333       0.326883
       29       3.858333       0.325373
       30       3.466667       0.302441
       31       3.575000       0.304149

 Density error is 17.779662492244
                          Error Threshold = 0.002843689984

       Energy                       Rydberg                            eV
   E_KohnSham              -89.150131219302            -1212.949762030192
     E_Harris              -89.591690528529            -1218.957484640623
      E_Fermi               +0.605463478681               +8.237753240959

 PW ALGORITHM --------------- ION=   1  ELEC=   8--------------------------------
  K-point    CG iter num      Time(Sec)
        1       2.975000       0.256235
        2       2.766667       0.244829
        3       2.283333       0.208849
        4       2.416667       0.215905
        5       2.191667       0.197814
        6       2.225000       0.205433
        7       2.583333       0.232066
        8       2.733333       0.244302
        9       2.358333       0.215091
       10       2.291667       0.206902
       11       2.308333       0.210429
       12       2.275000       0.207783
       13       2.291667       0.207901
       14       2.333333       0.221892
       15       2.450000       0.224098
       16       2.275000       0.211644
       17       2.341667       0.213639
       18       2.575000       0.227939
       19       2.441667       0.217687
       20       2.358333       0.212675
       21       2.341667       0.210700
       22       2.608333       0.237401
       23       2.533333       0.229173
       24       2.308333       0.209201
       25       2.508333       0.226200
       26       2.425000       0.218968
       27       2.466667       0.225133
       28       2.191667       0.202397
       29       2.283333       0.207171
       30       2.341667       0.213315
       31       2.200000       0.200437

 Density error is 1.970892743377
                          Error Threshold = 0.002843689984

       Energy                       Rydberg                            eV
   E_KohnSham              -89.315797874374            -1215.203772507779
     E_Harris              -89.500070802410            -1217.710934316210
      E_Fermi               +0.608449420144               +8.278379058758

 PW ALGORITHM --------------- ION=   1  ELEC=   9--------------------------------
  K-point    CG iter num      Time(Sec)
        1       3.041667       0.261698
        2       2.691667       0.239893
        3       2.383333       0.228206
        4       2.358333       0.211867
        5       2.250000       0.202202
        6       2.225000       0.204986
        7       2.750000       0.250811
        8       2.408333       0.219370
        9       2.633333       0.238771
       10       2.241667       0.202806
       11       2.241667       0.205729
       12       2.241667       0.206290
       13       2.375000       0.215754
       14       2.575000       0.233204
       15       2.516667       0.229592
       16       2.341667       0.215501
       17       2.516667       0.228122
       18       2.733333       0.239062
       19       2.358333       0.212266
       20       2.341667       0.211420
       21       2.408333       0.217067
       22       2.533333       0.229156
       23       2.308333       0.209538
       24       2.300000       0.208538
       25       2.316667       0.214716
       26       2.450000       0.220096
       27       2.558333       0.232045
       28       2.233333       0.204219
       29       2.225000       0.201486
       30       2.258333       0.206329
       31       2.233333       0.203504

 Density error is 72.737728479726
                          Error Threshold = 0.002843689984

       Energy                       Rydberg                            eV
   E_KohnSham              -88.979230841753            -1210.624543105174
     E_Harris              -89.791542820443            -1221.676614569018
      E_Fermi               +0.604176445531               +8.220242256608

 PW ALGORITHM --------------- ION=   1  ELEC=  10--------------------------------
  K-point    CG iter num      Time(Sec)
        1       2.591667       0.233616
        2       2.583333       0.232831
        3       2.200000       0.202744
        4       2.233333       0.201847
        5       2.116667       0.192027
        6       2.116667       0.196703
        7       2.650000       0.242031
        8       2.266667       0.207693
        9       2.566667       0.234402
       10       2.166667       0.196978
       11       2.166667       0.198117
       12       2.166667       0.200403
       13       2.283333       0.207646
       14       2.491667       0.225599
       15       2.291667       0.213900
       16       2.266667       0.209629
       17       2.400000       0.218928
       18       2.466667       0.222459
       19       2.258333       0.204737
       20       2.191667       0.200493
       21       2.300000       0.208333
       22       2.366667       0.217970
       23       2.150000       0.199158
       24       2.225000       0.203386
       25       2.216667       0.201339
       26       2.100000       0.192637
       27       2.175000       0.201002
       28       2.116667       0.195465
       29       2.183333       0.200304
       30       2.166667       0.199337
       31       2.125000       0.194713

 Density error is 4.052969844121
                          Error Threshold = 0.002843689984

       Energy                       Rydberg                            eV
   E_KohnSham              -89.451130341481            -1217.045065184822
     E_Harris              -89.449723010766            -1217.025917468139
      E_Fermi               +0.610090891608               +8.300712423763

 PW ALGORITHM --------------- ION=   1  ELEC=  11--------------------------------
  K-point    CG iter num      Time(Sec)
        1       2.000000       0.187145
        2       2.000000       0.186808
        3       2.000000       0.184486
        4       2.000000       0.183001
        5       2.000000       0.182721
        6       2.000000       0.185756
        7       2.000000       0.186010
        8       2.000000       0.185319
        9       2.000000       0.185939
       10       2.000000       0.182721
       11       2.000000       0.184746
       12       2.000000       0.186388
       13       2.000000       0.184671
       14       2.000000       0.184035
       15       2.000000       0.187609
       16       2.000000       0.185871
       17       2.000000       0.184678
       18       2.000000       0.184010
       19       2.000000       0.183696
       20       2.000000       0.182880
       21       2.000000       0.183173
       22       2.000000       0.185524
       23       2.000000       0.183836
       24       2.000000       0.183715
       25       2.000000       0.182854
       26       2.000000       0.183319
       27       2.000000       0.185371
       28       2.000000       0.183866
       29       2.000000       0.183391
       30       2.000000       0.184404
       31       2.000000       0.183348

 Density error is 4.790374447309
                          Error Threshold = 0.002843689984

       Energy                       Rydberg                            eV
   E_KohnSham              -89.341420095031            -1215.552380704129
     E_Harris              -89.458565725844            -1217.146228778988
      E_Fermi               +0.609671220071               +8.295002499573

 PW ALGORITHM --------------- ION=   1  ELEC=  12--------------------------------
  K-point    CG iter num      Time(Sec)
        1       2.791667       0.247482
        2       2.541667       0.229703
        3       2.133333       0.198224
        4       2.241667       0.202100
        5       2.116667       0.191707
        6       2.083333       0.194701
        7       2.550000       0.232685
        8       2.233333       0.206343
        9       2.183333       0.201204
       10       2.116667       0.192592
       11       2.175000       0.198717
       12       2.158333       0.199866
       13       2.141667       0.196721
       14       2.141667       0.195108
       15       2.308333       0.214870
       16       2.166667       0.201189
       17       2.258333       0.206696
       18       2.541667       0.229392
       19       2.308333       0.208324
       20       2.083333       0.189627
       21       2.250000       0.205283
       22       2.416667       0.220694
       23       2.116667       0.194559
       24       2.125000       0.194730
       25       2.283333       0.206978
       26       2.291667       0.207195
       27       2.383333       0.219117
       28       2.116667       0.194279
       29       2.141667       0.194728
       30       2.091667       0.193195
       31       2.091667       0.191584

 Density error is 38.486661131728
                          Error Threshold = 0.002843689984

       Energy                       Rydberg                            eV
   E_KohnSham              -89.168798607916            -1213.203744882123
     E_Harris              -89.690677733059            -1220.304274651324
      E_Fermi               +0.601579216979               +8.184905149291

 PW ALGORITHM --------------- ION=   1  ELEC=  13--------------------------------
  K-point    CG iter num      Time(Sec)
        1       2.125000       0.196414
        2       2.075000       0.190373
        3       2.050000       0.189419
        4       2.100000       0.191005
        5       2.083333       0.188309
        6       2.066667       0.191921
        7       2.108333       0.194675
        8       2.083333       0.192269
        9       2.033333       0.188226
       10       2.050000       0.186891
       11       2.050000       0.187689
       12       2.033333       0.189367
       13       2.041667       0.187198
       14       2.033333       0.186743
       15       2.150000       0.202008
       16       2.058333       0.190768
       17       2.066667       0.191065
       18       2.016667       0.184734
       19       2.033333       0.185347
       20       2.016667       0.184056
       21       2.083333       0.189630
       22       2.033333       0.188601
       23       2.066667       0.189380
       24       2.033333       0.186400
       25       2.016667       0.184156
       26       2.041667       0.186235
       27       2.058333       0.190204
       28       2.083333       0.191788
       29       2.033333       0.185825
       30       2.016667       0.185893
       31       2.066667       0.189394

 Density error is 0.318625281465
                          Error Threshold = 0.002843689984

       Energy                       Rydberg                            eV
   E_KohnSham              -89.427161711169            -1216.718955239324
     E_Harris              -89.433033526565            -1216.798845386324
      E_Fermi               +0.611944530373               +8.325932473007

 PW ALGORITHM --------------- ION=   1  ELEC=  14--------------------------------
  K-point    CG iter num      Time(Sec)
        1       3.333333       0.284505
        2       3.358333       0.294411
        3       2.441667       0.222034
        4       2.216667       0.199395
        5       2.100000       0.190406
        6       2.091667       0.193677
        7       3.075000       0.275294
        8       2.508333       0.228118
        9       2.316667       0.210351
       10       2.208333       0.200585
       11       2.258333       0.205904
       12       2.283333       0.214896
       13       2.208333       0.200929
       14       2.300000       0.210001
       15       2.450000       0.224299
       16       2.216667       0.204998
       17       2.350000       0.214131
       18       2.666667       0.237317
       19       2.391667       0.217064
       20       2.250000       0.202984
       21       2.383333       0.214125
       22       2.625000       0.239118
       23       2.158333       0.196570
       24       2.225000       0.201902
       25       2.383333       0.215174
       26       2.341667       0.210491
       27       2.316667       0.212144
       28       2.100000       0.193676
       29       2.225000       0.201344
       30       2.266667       0.206164
       31       2.100000       0.192618

 Density error is 0.597757180576
                          Error Threshold = 0.000505754415

       Energy                       Rydberg                            eV
   E_KohnSham              -89.421600696298            -1216.643293750416
     E_Harris              -89.436941384134            -1216.852014516225
      E_Fermi               +0.611367891512               +8.318086898814

 PW ALGORITHM --------------- ION=   1  ELEC=  15--------------------------------
  K-point    CG iter num      Time(Sec)
        1       2.000000       0.187566
        2       2.000000       0.184862
        3       2.016667       0.186117
        4       2.025000       0.185933
        5       2.033333       0.184713
        6       2.016667       0.185771
        7       2.000000       0.187503
        8       2.016667       0.186300
        9       2.083333       0.191377
       10       2.000000       0.183199
       11       2.000000       0.184713
       12       2.000000       0.185030
       13       2.025000       0.185621
       14       2.000000       0.185691
       15       2.033333       0.188970
       16       2.033333       0.188687
       17       2.000000       0.185939
       18       2.016667       0.184466
       19       2.033333       0.186493
       20       2.025000       0.184517
       21       2.016667       0.184255
       22       2.000000       0.185553
       23       2.033333       0.186857
       24       2.000000       0.183383
       25       2.016667       0.195096
       26       2.075000       0.188213
       27       2.000000       0.186345
       28       2.033333       0.186916
       29       2.000000       0.182939
       30       2.000000       0.184789
       31       2.000000       0.183259

 Density error is 0.229907784501
                          Error Threshold = 0.000505754415

       Energy                       Rydberg                            eV
   E_KohnSham              -89.427260546326            -1216.720299960623
     E_Harris              -89.433804882631            -1216.809340224006
      E_Fermi               +0.611797383224               +8.323930433330

 PW ALGORITHM --------------- ION=   1  ELEC=  16--------------------------------
  K-point    CG iter num      Time(Sec)
        1       2.000000       0.186018
        2       2.000000       0.184057
        3       2.000000       0.183848
        4       2.000000       0.184034
        5       2.000000       0.182136
        6       2.000000       0.184505
        7       2.000000       0.187487
        8       2.000000       0.185084
        9       2.000000       0.184091
       10       2.000000       0.185756
       11       2.000000       0.183384
       12       2.000000       0.184455
       13       2.000000       0.183742
       14       2.000000       0.185722
       15       2.000000       0.186379
       16       2.000000       0.186064
       17       2.000000       0.185317
       18       2.000000       0.183221
       19       2.000000       0.183273
       20       2.000000       0.183960
       21       2.000000       0.183664
       22       2.000000       0.185342
       23       2.000000       0.185354
       24       2.000000       0.183837
       25       2.000000       0.182415
       26       2.000000       0.184249
       27       2.000000       0.186970
       28       2.000000       0.184007
       29       2.000000       0.182924
       30       2.000000       0.185799
       31       2.000000       0.183660

 Density error is 0.198692733742
                          Error Threshold = 0.000364932991

       Energy                       Rydberg                            eV
   E_KohnSham              -89.430112476493            -1216.759102461192
     E_Harris              -89.431930242733            -1216.783834439687
      E_Fermi               +0.612045060886               +8.327300260807

 PW ALGORITHM --------------- ION=   1  ELEC=  17--------------------------------
  K-point    CG iter num      Time(Sec)
        1       2.000000       0.186043
        2       2.000000       0.183987
        3       2.000000       0.185169
        4       2.000000       0.183432
        5       2.000000       0.181366
        6       2.000000       0.186339
        7       2.000000       0.185661
        8       2.000000       0.184668
        9       2.000000       0.185431
       10       2.000000       0.183730
       11       2.000000       0.183798
       12       2.000000       0.184565
       13       2.000000       0.185031
       14       2.000000       0.183961
       15       2.000000       0.186368
       16       2.000000       0.187858
       17       2.000000       0.184472
       18       2.000000       0.183047
       19       2.000000       0.184623
       20       2.000000       0.185649
       21       2.000000       0.182859
       22       2.000000       0.187140
       23       2.000000       0.184278
       24       2.000000       0.183443
       25       2.000000       0.182586
       26       2.000000       0.182088
       27       2.000000       0.185923
       28       2.000000       0.184122
       29       2.000000       0.182946
       30       2.000000       0.184255
       31       2.000000       0.183471

 Density error is 0.020037965685
                          Error Threshold = 0.000315385292

       Energy                       Rydberg                            eV
   E_KohnSham              -89.431075877728            -1216.772210207452
     E_Harris              -89.431364619683            -1216.776138743288
      E_Fermi               +0.612110507547               +8.328190708306

 PW ALGORITHM --------------- ION=   1  ELEC=  18--------------------------------
  K-point    CG iter num      Time(Sec)
        1       3.200000       0.274991
        2       2.841667       0.253251
        3       2.358333       0.214509
        4       2.300000       0.217508
        5       2.133333       0.193077
        6       2.133333       0.196547
        7       2.908333       0.261458
        8       2.600000       0.234289
        9       2.400000       0.216134
       10       2.291667       0.207224
       11       2.333333       0.211760
       12       2.300000       0.209277
       13       2.366667       0.213347
       14       2.558333       0.230429
       15       2.666667       0.241864
       16       2.341667       0.214258
       17       2.508333       0.227112
       18       3.366667       0.293596
       19       2.525000       0.227385
       20       2.350000       0.210307
       21       2.600000       0.231260
       22       2.825000       0.254871
       23       2.291667       0.207707
       24       2.358333       0.213764
       25       2.341667       0.210017
       26       3.066667       0.270918
       27       3.216667       0.290633
       28       2.150000       0.196552
       29       2.400000       0.216665
       30       2.333333       0.211230
       31       2.150000       0.195328

 Density error is 0.000231730977
                          Error Threshold = 0.000031806295

       Energy                       Rydberg                            eV
   E_KohnSham              -89.431221292020            -1216.774188670390
     E_Harris              -89.431251052391            -1216.774593581014
      E_Fermi               +0.612116448968               +8.328271545487

 PW ALGORITHM --------------- ION=   1  ELEC=  19--------------------------------
  K-point    CG iter num      Time(Sec)
        1       5.441667       0.429045
        2       4.400000       0.370567
        3       3.341667       0.293152
        4       3.141667       0.270729
        5       2.808333       0.246231
        6       2.508333       0.225326
        7       4.216667       0.363009
        8       3.725000       0.319105
        9       3.258333       0.285957
       10       2.950000       0.256315
       11       3.166667       0.276104
       12       3.191667       0.281629
       13       2.958333       0.259321
       14       3.175000       0.277323
       15       3.808333       0.330503
       16       3.591667       0.319140
       17       3.250000       0.283688
       18       4.375000       0.369764
       19       3.016667       0.262659
       20       2.800000       0.245681
       21       3.100000       0.269972
       22       4.358333       0.378486
       23       2.991667       0.262907
       24       2.966667       0.259770
       25       3.141667       0.273834
       26       4.400000       0.378572
       27       4.191667       0.370995
       28       2.825000       0.271078
       29       3.158333       0.273549
       30       2.875000       0.254677
       31       2.575000       0.229362

 Density error is 0.000236889351
                          Error Threshold = 0.000000367827

       Energy                       Rydberg                            eV
   E_KohnSham              -89.431240516754            -1216.774450236317
     E_Harris              -89.431243442851            -1216.774490047911
      E_Fermi               +0.612115754557               +8.328262097549

 PW ALGORITHM --------------- ION=   1  ELEC=  20--------------------------------
  K-point    CG iter num      Time(Sec)
        1       2.491667       0.224277
        2       2.658333       0.239081
        3       2.216667       0.203073
        4       2.116667       0.191951
        5       2.116667       0.191675
        6       2.116667       0.195679
        7       2.625000       0.238839
        8       2.241667       0.204251
        9       2.233333       0.206120
       10       2.133333       0.194182
       11       2.208333       0.201015
       12       2.116667       0.195892
       13       2.125000       0.194641
       14       2.258333       0.205617
       15       2.233333       0.207497
       16       2.333333       0.214923
       17       2.258333       0.205851
       18       2.875000       0.258248
       19       2.216667       0.201417
       20       2.125000       0.193397
       21       2.183333       0.199135
       22       2.875000       0.260549
       23       2.125000       0.195362
       24       2.141667       0.195624
       25       2.216667       0.200612
       26       3.300000       0.292711
       27       3.391667       0.304619
       28       2.100000       0.192775
       29       2.150000       0.196882
       30       2.125000       0.194233
       31       2.125000       0.193680

 Density error is 0.010304767017
                          Error Threshold = 0.000000367827

       Energy                       Rydberg                            eV
   E_KohnSham              -89.430957047302            -1216.770593436564
     E_Harris              -89.431275894118            -1216.774931570043
      E_Fermi               +0.612110317370               +8.328188120822

 PW ALGORITHM --------------- ION=   1  ELEC=  21--------------------------------
  K-point    CG iter num      Time(Sec)
        1       3.058333       0.267852
        2       3.216667       0.284139
        3       2.633333       0.237407
        4       2.416667       0.216351
        5       2.350000       0.208913
        6       2.350000       0.215567
        7       3.250000       0.290123
        8       2.608333       0.234732
        9       2.741667       0.247080
       10       2.391667       0.214553
       11       2.500000       0.226721
       12       2.441667       0.221578
       13       2.391667       0.215722
       14       2.741667       0.246729
       15       2.650000       0.240455
       16       2.666667       0.243616
       17       2.766667       0.247841
       18       3.508333       0.305246
       19       2.508333       0.223872
       20       2.475000       0.220719
       21       2.516667       0.225376
       22       3.425000       0.306758
       23       2.425000       0.220500
       24       2.383333       0.214557
       25       2.500000       0.224565
       26       4.408333       0.381198
       27       4.425000       0.392276
       28       2.383333       0.216211
       29       2.508333       0.224371
       30       2.475000       0.224083
       31       2.350000       0.211657

 Density error is 0.157320192060
                          Error Threshold = 0.000000367827

       Energy                       Rydberg                            eV
   E_KohnSham              -89.430904335423            -1216.769876254650
     E_Harris              -89.431798891251            -1216.782047311093
      E_Fermi               +0.612048139542               +8.327342148072

 PW ALGORITHM --------------- ION=   1  ELEC=  22--------------------------------
  K-point    CG iter num      Time(Sec)
        1       3.483333       0.294960
        2       3.450000       0.303549
        3       2.716667       0.243899
        4       2.500000       0.221877
        5       2.483333       0.221988
        6       2.425000       0.218805
        7       3.433333       0.305513
        8       2.775000       0.248333
        9       2.758333       0.245993
       10       2.458333       0.221553
       11       2.600000       0.232605
       12       2.491667       0.225179
       13       2.458333       0.222069
       14       2.741667       0.243929
       15       2.791667       0.252359
       16       2.708333       0.246588
       17       2.758333       0.245981
       18       3.533333       0.307906
       19       2.641667       0.235399
       20       2.566667       0.229225
       21       2.650000       0.234455
       22       3.533333       0.313718
       23       2.500000       0.224363
       24       2.458333       0.220466
       25       2.658333       0.237339
       26       3.575000       0.311506
       27       3.516667       0.315128
       28       2.466667       0.223154
       29       2.641667       0.235832
       30       2.550000       0.228607
       31       2.416667       0.217140

 Density error is 0.017350453341
                          Error Threshold = 0.000000367827

       Energy                       Rydberg                            eV
   E_KohnSham              -89.431137226142            -1216.773044895448
     E_Harris              -89.431345522206            -1216.775878908794
      E_Fermi               +0.612100317176               +8.328052061204

 PW ALGORITHM --------------- ION=   1  ELEC=  23--------------------------------
  K-point    CG iter num      Time(Sec)
        1       3.083333       0.268129
        2       3.133333       0.277309
        3       2.541667       0.229149
        4       2.350000       0.212179
        5       2.325000       0.207965
        6       2.291667       0.208257
        7       3.150000       0.282288
        8       2.558333       0.230639
        9       2.566667       0.232588
       10       2.316667       0.208723
       11       2.433333       0.218941
       12       2.325000       0.212111
       13       2.300000       0.208728
       14       2.566667       0.230380
       15       2.533333       0.230818
       16       2.541667       0.232375
       17       2.566667       0.231297
       18       3.125000       0.274596
       19       2.416667       0.217229
       20       2.366667       0.212175
       21       2.416667       0.217234
       22       3.058333       0.273464
       23       2.350000       0.212766
       24       2.325000       0.209534
       25       2.408333       0.215657
       26       3.541667       0.308383
       27       3.566667       0.318812
       28       2.325000       0.210930
       29       2.433333       0.217879
       30       2.366667       0.214140
       31       2.291667       0.206779

 Density error is 0.003159737852
                          Error Threshold = 0.000000367827

       Energy                       Rydberg                            eV
   E_KohnSham              -89.431194446573            -1216.773823419347
     E_Harris              -89.431264963625            -1216.774782853066
      E_Fermi               +0.612111309453               +8.328201618808

 PW ALGORITHM --------------- ION=   1  ELEC=  24--------------------------------
  K-point    CG iter num      Time(Sec)
        1       2.675000       0.235523
        2       2.566667       0.229977
        3       2.283333       0.207944
        4       2.216667       0.199350
        5       2.233333       0.200778
        6       2.158333       0.197896
        7       2.575000       0.233336
        8       2.425000       0.219054
        9       2.350000       0.213211
       10       2.233333       0.202478
       11       2.241667       0.203072
       12       2.225000       0.204007
       13       2.233333       0.202701
       14       2.341667       0.211203
       15       2.400000       0.218919
       16       2.291667       0.210518
       17       2.350000       0.213017
       18       2.816667       0.250443
       19       2.308333       0.208262
       20       2.258333       0.204245
       21       2.308333       0.207963
       22       2.766667       0.249644
       23       2.216667       0.213046
       24       2.233333       0.203025
       25       2.300000       0.208594
       26       3.300000       0.291161
       27       3.291667       0.295760
       28       2.241667       0.204819
       29       2.333333       0.209552
       30       2.258333       0.205576
       31       2.150000       0.196149

 Density error is 0.000700433067
                          Error Threshold = 0.000000367827

       Energy                       Rydberg                            eV
   E_KohnSham              -89.431218185494            -1216.774146403939
     E_Harris              -89.431250819150            -1216.774590407601
      E_Fermi               +0.612112642120               +8.328219750668

 PW ALGORITHM --------------- ION=   1  ELEC=  25--------------------------------
  K-point    CG iter num      Time(Sec)
        1       2.358333       0.212166
        2       2.583333       0.233993
        3       2.108333       0.193183
        4       2.075000       0.189198
        5       2.083333       0.188536
        6       2.050000       0.188855
        7       2.616667       0.239854
        8       2.166667       0.198317
        9       2.166667       0.198815
       10       2.058333       0.187377
       11       2.066667       0.189424
       12       2.041667       0.188209
       13       2.075000       0.190914
       14       2.150000       0.196348
       15       2.116667       0.197656
       16       2.108333       0.195564
       17       2.175000       0.198919
       18       2.450000       0.220403
       19       2.108333       0.192272
       20       2.083333       0.189063
       21       2.108333       0.192467
       22       2.508333       0.229387
       23       2.066667       0.189507
       24       2.075000       0.189358
       25       2.108333       0.192206
       26       3.008333       0.266408
       27       3.041667       0.275493
       28       2.066667       0.190166
       29       2.066667       0.188206
       30       2.083333       0.191119
       31       2.058333       0.188390

 Density error is 0.002937733172
                          Error Threshold = 0.000000367827

       Energy                       Rydberg                            eV
   E_KohnSham              -89.431223166611            -1216.774214175513
     E_Harris              -89.431249912584            -1216.774578073142
      E_Fermi               +0.612113401704               +8.328230085336

 PW ALGORITHM --------------- ION=   1  ELEC=  26--------------------------------
  K-point    CG iter num      Time(Sec)
        1       2.000000       0.184918
        2       2.000000       0.184112
        3       2.000000       0.183544
        4       2.000000       0.182990
        5       2.000000       0.182280
        6       2.000000       0.184258
        7       2.416667       0.221897
        8       2.000000       0.184868
        9       2.000000       0.183821
       10       2.000000       0.183787
       11       2.000000       0.183516
       12       2.000000       0.184397
       13       2.000000       0.184430
       14       2.000000       0.184131
       15       2.000000       0.185889
       16       2.000000       0.185556
       17       2.000000       0.184813
       18       2.016667       0.184565
       19       2.000000       0.183285
       20       2.000000       0.183665
       21       2.000000       0.182963
       22       2.000000       0.185751
       23       2.000000       0.184014
       24       2.000000       0.183804
       25       2.000000       0.183031
       26       2.608333       0.234327
       27       2.675000       0.243106
       28       2.000000       0.183930
       29       2.000000       0.183657
       30       2.000000       0.183996
       31       2.000000       0.183888

 Density error is 0.000084723905
                          Error Threshold = 0.000000367827

       Energy                       Rydberg                            eV
   E_KohnSham              -89.431237935499            -1216.774415116549
     E_Harris              -89.431238480866            -1216.774422536646
      E_Fermi               +0.612114578875               +8.328246101565

 PW ALGORITHM --------------- ION=   1  ELEC=  27--------------------------------
  K-point    CG iter num      Time(Sec)
        1       2.116667       0.194062
        2       2.475000       0.224860
        3       2.025000       0.186329
        4       2.000000       0.182595
        5       2.000000       0.182827
        6       2.000000       0.184384
        7       2.175000       0.201217
        8       2.000000       0.185782
        9       2.033333       0.186760
       10       2.000000       0.183643
       11       2.000000       0.183386
       12       2.000000       0.185723
       13       2.000000       0.183965
       14       2.041667       0.187823
       15       2.000000       0.186689
       16       2.000000       0.185631
       17       2.033333       0.187119
       18       2.333333       0.212065
       19       2.025000       0.185514
       20       2.000000       0.182975
       21       2.025000       0.186067
       22       2.325000       0.213689
       23       2.000000       0.183826
       24       2.000000       0.183939
       25       2.025000       0.184928
       26       2.350000       0.211706
       27       2.316667       0.212819
       28       2.000000       0.183999
       29       2.000000       0.182916
       30       2.000000       0.183907
       31       2.000000       0.183138

 Density error is 0.000005364992
                          Error Threshold = 0.000000134482

       Energy                       Rydberg                            eV
   E_KohnSham              -89.431238081855            -1216.774417107815
     E_Harris              -89.431238176586            -1216.774418396702
      E_Fermi               +0.612114506736               +8.328245120075

 PW ALGORITHM --------------- ION=   1  ELEC=  28--------------------------------
  K-point    CG iter num      Time(Sec)
        1       3.208333       0.273448
        2       3.133333       0.275926
        3       2.541667       0.229024
        4       2.250000       0.202471
        5       2.266667       0.203502
        6       2.183333       0.200477
        7       3.058333       0.274233
        8       2.600000       0.234058
        9       2.483333       0.224666
       10       2.300000       0.207522
       11       2.383333       0.216303
       12       2.558333       0.232197
       13       2.291667       0.207695
       14       2.441667       0.220352
       15       2.541667       0.231533
       16       2.566667       0.235357
       17       2.458333       0.222621
       18       3.008333       0.263811
       19       2.341667       0.211933
       20       2.275000       0.205090
       21       2.358333       0.211952
       22       2.983333       0.267023
       23       2.250000       0.204150
       24       2.308333       0.209436
       25       2.358333       0.212550
       26       3.308333       0.289995
       27       3.383333       0.303028
       28       2.241667       0.204112
       29       2.833333       0.253211
       30       2.275000       0.206969
       31       2.166667       0.197293

 Density error is 0.000002377864
                          Error Threshold = 0.000000008516

       Energy                       Rydberg                            eV
   E_KohnSham              -89.431238109266            -1216.774417480758
     E_Harris              -89.431238174420            -1216.774418367236
      E_Fermi               +0.612114467327               +8.328244583876

 PW ALGORITHM --------------- ION=   1  ELEC=  29--------------------------------
  K-point    CG iter num      Time(Sec)
        1       2.066667       0.189097
        2       2.125000       0.195471
        3       2.000000       0.183766
        4       2.041667       0.185467
        5       2.000000       0.182451
        6       2.016667       0.185799
        7       2.141667       0.197174
        8       2.066667       0.190553
        9       2.050000       0.188120
       10       2.033333       0.185487
       11       2.050000       0.188698
       12       2.150000       0.197403
       13       2.075000       0.190224
       14       2.108333       0.192330
       15       2.050000       0.190944
       16       2.000000       0.185894
       17       2.050000       0.188347
       18       2.050000       0.186155
       19       2.116667       0.192169
       20       2.058333       0.187106
       21       2.100000       0.191116
       22       2.075000       0.191528
       23       2.025000       0.185965
       24       2.016667       0.184913
       25       2.083333       0.189530
       26       2.200000       0.199173
       27       2.150000       0.198259
       28       2.033333       0.186556
       29       2.100000       0.190783
       30       2.033333       0.186637
       31       2.016667       0.184896

 Density error is 0.000000403314
                          Error Threshold = 0.000000003774

[...]
      46      11.233216       0.000000
      47      11.617556       0.000000
      48      11.824889       0.000000
      49      12.635725       0.000000
      50      12.881534       0.000000
      51      12.931125       0.000000
      52      13.160490       0.000000
      53      14.160690       0.000000
      54      14.248371       0.000000
      55      14.534891       0.000000
      56      14.599024       0.000000
      57      14.599787       0.000000
      58      14.619569       0.000000
      59      14.749856       0.000000
      60      14.792147       0.000000
      61      14.793684       0.000000
      62      15.114167       0.000000
      63      15.116497       0.000000
      64      15.456844       0.000000
      65      15.564874       0.000000
      66      15.568034       0.000000
      67      15.834181       0.000000
      68      16.088492       0.000000
      69      16.143904       0.000000
      70      16.147936       0.000000
      71      16.196694       0.000000
      72      16.394995       0.000000
      73      16.669423       0.000000
      74      16.669999       0.000000
      75      16.732259       0.000000
      76      16.850549       0.000000
      77      16.855526       0.000000
      78      17.022436       0.000000
      79      17.356408       0.000000
      80      17.481422       0.000000
      81      17.683340       0.000000
      82      17.689337       0.000000
      83      17.877166       0.000000
      84      17.978789       0.000000
      85      17.991922       0.000000
      86      18.055486       0.000000
      87      18.266245       0.000000
      88      18.633578       0.000000
      89      18.638549       0.000000
      90      18.645634       0.000000
      91      18.679141       0.000000
      92      18.746112       0.000000
      93      18.784478       0.000000
      94      19.472358       0.000000
      95      19.550337       0.000000
      96      19.584358       0.000000
      97      19.592093       0.000000
      98      19.703171       0.000000
      99      19.711293       0.000000
     100      20.300622       0.000000
     101      20.363659       0.000000
     102      20.369786       0.000000
     103      20.458601       0.000000
     104      20.748559       0.000000
     105      20.787581       0.000000
     106      20.794886       0.000000
     107      21.443412       0.000000
     108      21.527745       0.000000
     109      21.695108       0.000000
     110      22.141875       0.000000
     111      22.405969       0.000000
     112      22.617225       0.000000
     113      22.626341       0.000000
     114      22.935372       0.000000
     115      23.589523       0.000000
     116      23.736290       0.000000
     117      23.956784       0.000000
     118      23.970427       0.000000
     119      24.169464       0.000000
     120      24.330844       0.000000

 29/31 kpoint (Cartesian) = 0.848528 0.326599 0.000000 (668 pws)
       1       1.528969       0.080000
       2       1.591175       0.080000
       3       1.594337       0.080000
       4       1.780610       0.080000
       5       1.787409       0.080000
       6       2.096588       0.080000
       7       2.108143       0.080000
       8       2.537759       0.080000
       9       2.556266       0.080000
      10       3.101238       0.080000
      11       3.130890       0.080000
      12       3.779723       0.080000
      13       3.823206       0.080000
      14       4.032700       0.080000
      15       4.093288       0.080000
      16       4.121691       0.080000
      17       4.274117       0.080000
      18       4.305695       0.080000
      19       4.548616       0.080000
      20       4.571564       0.080000
      21       4.625652       0.080000
      22       4.673001       0.080000
      23       4.967327       0.080000
      24       5.073206       0.080000
      25       5.274513       0.080000
      26       5.369794       0.080000
      27       5.623371       0.080000
      28       5.647381       0.080000
      29       6.347219       0.080000
      30       6.698809       0.080000
      31       6.823308       0.080000
      32       7.111574       0.080000
      33       7.171115       0.080000
      34       7.420963       0.080000
      35       7.891255       0.080000
      36       8.115848       0.079886
      37       8.151610       0.079476
      38       8.317061       0.044993
      39       9.173717       0.000000
      40       9.189346       0.000000
      41       9.377970       0.000000
      42       9.443315       0.000000
      43      10.318718       0.000000
      44      10.512136       0.000000
      45      10.578342       0.000000
      46      10.885735       0.000000
      47      11.326801       0.000000
      48      11.380734       0.000000
      49      11.435468       0.000000
      50      11.514600       0.000000
      51      11.630445       0.000000
      52      11.910347       0.000000
      53      12.054172       0.000000
      54      12.258300       0.000000
      55      12.461619       0.000000
      56      12.522839       0.000000
      57      12.580299       0.000000
      58      12.674606       0.000000
      59      12.730169       0.000000
      60      13.236870       0.000000
      61      13.254767       0.000000
      62      13.328513       0.000000
      63      13.369001       0.000000
      64      13.932561       0.000000
      65      13.937719       0.000000
      66      13.938631       0.000000
      67      14.158375       0.000000
      68      14.461869       0.000000
      69      14.755801       0.000000
      70      14.757167       0.000000
      71      14.945480       0.000000
      72      15.698093       0.000000
      73      15.704366       0.000000
      74      15.959625       0.000000
      75      16.482776       0.000000
      76      16.629410       0.000000
      77      16.754462       0.000000
      78      16.774003       0.000000
      79      16.867712       0.000000
      80      17.783432       0.000000
      81      17.888631       0.000000
      82      17.946195       0.000000
      83      17.950818       0.000000
      84      18.282808       0.000000
      85      18.373218       0.000000
      86      18.809224       0.000000
      87      19.171225       0.000000
      88      19.290940       0.000000
      89      19.389532       0.000000
      90      19.772409       0.000000
      91      19.802016       0.000000
      92      19.835763       0.000000
      93      19.836338       0.000000
      94      20.104509       0.000000
      95      20.141698       0.000000
      96      20.220453       0.000000
      97      20.346717       0.000000
      98      20.660518       0.000000
      99      20.881859       0.000000
     100      20.935565       0.000000
     101      21.013576       0.000000
     102      21.082421       0.000000
     103      21.191447       0.000000
     104      21.540234       0.000000
     105      21.582737       0.000000
     106      21.617250       0.000000
     107      22.076083       0.000000
     108      22.311666       0.000000
     109      22.344045       0.000000
     110      22.351424       0.000000
     111      22.403415       0.000000
     112      22.779955       0.000000
     113      23.017795       0.000000
     114      23.100858       0.000000
     115      23.617471       0.000000
     116      23.703697       0.000000
     117      23.870486       0.000000
     118      24.416053       0.000000
     119      24.476497       0.000000
     120      24.479324       0.000000

 30/31 kpoint (Cartesian) = 0.565685 0.653197 0.000000 (716 pws)
       1       3.286845       0.040000
       2       3.286846       0.040000
       3       3.348029       0.040000
       4       3.348029       0.040000
       5       3.352081       0.040000
       6       3.352085       0.040000
       7       3.534998       0.040000
       8       3.534998       0.040000
       9       3.543559       0.040000
      10       3.543572       0.040000
      11       3.846094       0.040000
      12       3.846120       0.040000
      13       3.857242       0.040000
      14       3.857260       0.040000
      15       4.277411       0.040000
      16       4.277421       0.040000
      17       4.320970       0.040000
      18       4.320988       0.040000
      19       4.817755       0.040000
      20       4.817772       0.040000
      21       4.886617       0.040000
      22       4.886631       0.040000
      23       5.422248       0.040000
      24       5.422286       0.040000
      25       5.580475       0.040000
      26       5.580478       0.040000
      27       5.806635       0.040000
      28       6.394051       0.040000
      29       6.394051       0.040000
      30       7.163838       0.040000
      31       7.313836       0.040000
      32       7.313836       0.040000
      33       7.674480       0.040000
      34       7.674519       0.040000
      35       8.281955       0.029689
      36       8.281956       0.029689
      37       8.282625       0.029567
      38       8.341844       0.016970
      39       8.341908       0.016956
      40       8.495410       0.000377
      41       8.495457       0.000377
      42       8.676873       0.000000
      43       8.676893       0.000000
      44       8.758139       0.000000
      45       8.758177       0.000000
      46       8.902797       0.000000
      47       8.902884       0.000000
      48       9.842204       0.000000
      49       9.842214       0.000000
      50      10.200048       0.000000
      51      10.200051       0.000000
      52      10.207113       0.000000
      53      10.207144       0.000000
      54      10.789094       0.000000
      55      10.789095       0.000000
      56      11.164914       0.000000
      57      11.164939       0.000000
      58      11.229756       0.000000
      59      11.229761       0.000000
      60      11.581336       0.000000
      61      11.581336       0.000000
      62      12.519015       0.000000
      63      12.519015       0.000000
      64      12.589412       0.000000
      65      12.589424       0.000000
      66      12.612353       0.000000
      67      12.612353       0.000000
      68      13.587140       0.000000
      69      13.587142       0.000000
      70      14.045195       0.000000
      71      14.045225       0.000000
      72      14.177877       0.000000
      73      14.177877       0.000000
      74      14.775142       0.000000
      75      14.775144       0.000000
      76      15.039232       0.000000
      77      15.830921       0.000000
      78      15.830922       0.000000
      79      16.061952       0.000000
      80      16.061954       0.000000
      81      16.944137       0.000000
      82      17.327848       0.000000
      83      17.327852       0.000000
      84      17.381963       0.000000
      85      17.381968       0.000000
      86      18.062574       0.000000
      87      18.062605       0.000000
      88      19.733203       0.000000
      89      19.733204       0.000000
      90      19.890848       0.000000
      91      19.890862       0.000000
      92      20.150131       0.000000
      93      20.150153       0.000000
      94      21.147975       0.000000
      95      21.147975       0.000000
      96      21.870248       0.000000
      97      21.870257       0.000000
      98      21.946589       0.000000
      99      21.946620       0.000000
     100      22.877368       0.000000
     101      22.877368       0.000000
     102      23.751827       0.000000
     103      23.779068       0.000000
     104      23.779123       0.000000
     105      23.818061       0.000000
     106      23.818125       0.000000
     107      24.019068       0.000000
     108      24.019117       0.000000
     109      24.346364       0.000000
     110      24.346394       0.000000
     111      24.366369       0.000000
     112      24.366407       0.000000
     113      24.508298       0.000000
     114      24.508299       0.000000
     115      24.914410       0.000000
     116      24.914499       0.000000
     117      25.189036       0.000000
     118      25.189038       0.000000
     119      25.869656       0.000000
     120      25.869657       0.000000

 31/31 kpoint (Cartesian) = 0.707107 0.408248 0.000000 (688 pws)
       1       2.533068       0.020000
       2       2.533069       0.020000
       3       2.593595       0.020000
       4       2.593595       0.020000
       5       2.599193       0.020000
       6       2.599197       0.020000
       7       2.780063       0.020000
       8       2.780064       0.020000
       9       2.791847       0.020000
      10       2.791861       0.020000
      11       3.090739       0.020000
      12       3.090765       0.020000
      13       3.106573       0.020000
      14       3.106592       0.020000
      15       3.521605       0.020000
      16       3.521615       0.020000
      17       3.576250       0.020000
      18       3.576270       0.020000
      19       4.061199       0.020000
      20       4.061217       0.020000
      21       4.145703       0.020000
      22       4.145717       0.020000
      23       4.663788       0.020000
      24       4.663827       0.020000
      25       4.847447       0.020000
      26       4.847451       0.020000
      27       5.044773       0.020000
      28       5.676202       0.020000
      29       5.676203       0.020000
      30       6.423557       0.020000
      31       6.630367       0.020000
      32       6.630367       0.020000
      33       6.932332       0.020000
      34       6.932371       0.020000
      35       7.707941       0.020000
      36       7.707941       0.020000
      37       7.918231       0.020000
      38       7.918249       0.020000
      39       8.905307       0.000000
      40       8.905321       0.000000
      41       9.095602       0.000000
      42       9.095612       0.000000
      43      10.219083       0.000000
      44      10.219088       0.000000
      45      10.421321       0.000000
      46      10.421346       0.000000
      47      11.629535       0.000000
      48      11.629543       0.000000
      49      11.877168       0.000000
      50      11.877168       0.000000
      51      13.098596       0.000000
      52      13.098613       0.000000
      53      13.459178       0.000000
      54      13.459178       0.000000
      55      14.281501       0.000000
      56      14.281734       0.000000
      57      14.346226       0.000000
      58      14.346290       0.000000
      59      14.539767       0.000000
      60      14.539816       0.000000
      61      14.862215       0.000000
      62      14.862255       0.000000
      63      14.864887       0.000000
      64      15.159443       0.000000
      65      15.159444       0.000000
      66      15.313344       0.000000
      67      15.313481       0.000000
      68      15.694013       0.000000
      69      15.694047       0.000000
      70      15.892944       0.000000
      71      15.892948       0.000000
      72      16.270534       0.000000
      73      16.270573       0.000000
      74      16.600155       0.000000
      75      16.600156       0.000000
      76      16.711092       0.000000
      77      16.711127       0.000000
      78      16.962924       0.000000
      79      16.962931       0.000000
      80      17.198917       0.000000
      81      17.199044       0.000000
      82      17.433563       0.000000
      83      17.433565       0.000000
      84      17.624457       0.000000
      85      17.782632       0.000000
      86      17.782634       0.000000
      87      18.166575       0.000000
      88      18.166623       0.000000
      89      18.389437       0.000000
      90      18.389448       0.000000
      91      18.473853       0.000000
      92      18.473854       0.000000
      93      18.822722       0.000000
      94      18.822756       0.000000
      95      19.271220       0.000000
      96      19.271221       0.000000
      97      19.454687       0.000000
      98      19.454728       0.000000
      99      19.623481       0.000000
     100      19.623501       0.000000
     101      20.160547       0.000000
     102      20.160555       0.000000
     103      20.482187       0.000000
     104      20.482233       0.000000
     105      20.538614       0.000000
     106      20.538659       0.000000
     107      21.094506       0.000000
     108      21.094520       0.000000
     109      21.531314       0.000000
     110      21.531324       0.000000
     111      21.892457       0.000000
     112      21.892488       0.000000
     113      22.370667       0.000000
     114      22.370711       0.000000
     115      23.657847       0.000000
     116      23.657870       0.000000
     117      23.712621       0.000000
     118      23.712663       0.000000
     119      24.150244       0.000000
     120      24.150290       0.000000



 --------------------------------------------
 !FINAL_ETOT_IS -1216.7744126462634995 eV
 --------------------------------------------






  |CLASS_NAME---------|NAME---------------|TIME(Sec)-----|CALLS----|AVG------|PER%-------
                                      total        354.906        17     20.88    100.00%
                 Run_pw     plane_wave_line         354.90         1    354.90    100.00%
               PW_Basis              gen_pw           0.13         1      0.13      0.04%
                Cell_PW        opt_cells_pw         354.71         1    354.71     99.94%
              ppcell_vl           init_vloc           0.12         1      0.12      0.03%
              Potential            init_pot           0.16         1      0.16      0.05%
                    FFT               FFT3D         215.01   1286170      0.00     60.58%
                 Charge          atomic_rho           0.13         1      0.13      0.04%
               wavefunc             wfcinit           5.18         1      5.18      1.46%
              Hamilt_PW      diagH_subspace          56.79       899      0.06     16.00%
              Hamilt_PW               h_psi         225.84    482104      0.00     63.63%
              Hamilt_PW                vloc         222.94    482104      0.00     62.82%
              Hamilt_PW                 vnl           0.19    482104      0.00      0.05%
              Hamilt_PW                meta           0.18    482104      0.00      0.05%
                 Hamilt        diagH_LAPACK           4.38       899      0.00      1.23%
                   Ions         opt_ions_pw         349.23         1    349.23     98.40%
              Electrons     self_consistent         349.23         1    349.23     98.40%
               Symmetry        rho_symmetry           0.25        30      0.01      0.07%
              Electrons             c_bands         318.81        29     10.99     89.83%
                 Hamilt            diagH_pw         318.63       899      0.35     89.78%
               Diago_CG                diag         263.80       899      0.29     74.33%
                 Charge            sum_band          27.39        29      0.94      7.72%
                 Charge             rho_mpi           0.33        29      0.01      0.09%
                 Charge             mix_rho           0.11        29      0.00      0.03%
 ----------------------------------------------------------------------------------------

 CLASS_NAME---------|NAME---------------|MEMORY(MB)--------
                                         47.5375
             wavefunc                 evc        43.3667
 ----------------------------------------------------------

 Start  Time  : Wed Sep 22 11:28:44 2021
 Finish Time  : Wed Sep 22 11:34:39 2021
 Total  Time  : 0 h 5 mins 55 secs 
