                                                                                     
                             WELCOME TO ABACUS                                       
                                                                                     
               'Atomic-orbital Based Ab-initio Computation at UStc'                  
                                                                                     
                     Website: http://abacus.ustc.edu.cn/                             
                                                                                     
    Version: Parallel, in development
    Processor Number is 1
    Start Time is Fri Sep 10 11:31:50 2021
                                                                                     
 ------------------------------------------------------------------------------------

 READING GENERAL INFORMATION
                           global_out_dir = OUT.blpstest/
                           global_in_card = INPUT
                               pseudo_dir = ./
                              orbital_dir = ./
                              pseudo_type = blps
                                    DRANK = 1
                                    DSIZE = 1
                                   DCOLOR = 1
                                    GRANK = 1
                                    GSIZE = 1




 >>>>>>>>>>>>>>>>>>>>>>>>>>>>>>>>>>>>>>>>>>>>>>>>>>>>>>>>>>>>>>>>>>>>>>
 |                                                                    |
 | Reading atom information in unitcell:                              |
 | From the input file and the structure file we know the number of   |
 | different elments in this unitcell, then we list the detail        |
 | information for each element, especially the zeta and polar atomic |
 | orbital number for each element. The total atom number is counted. |
 | We calculate the nearest atom distance for each atom and show the  |
 | Cartesian and Direct coordinates for each atom. We list the file   |
 | address for atomic orbitals. The volume and the lattice vectors    |
 | in real and reciprocal space is also shown.                        |
 |                                                                    |
 <<<<<<<<<<<<<<<<<<<<<<<<<<<<<<<<<<<<<<<<<<<<<<<<<<<<<<<<<<<<<<<<<<<<<<




 READING UNITCELL INFORMATION
                                    ntype = 1
                 atom label for species 1 = Si
                  lattice constant (Bohr) = 11.0383
              lattice constant (Angstrom) = 5.84122

 READING ATOM TYPE 1
                               atom label = Si
                      L=0, number of zeta = 1
                      L=1, number of zeta = 1
                      L=2, number of zeta = 1
             number of atom for this type = 2
                      start magnetization = FALSE
                      start magnetization = FALSE

                        TOTAL ATOM NUMBER = 2

 DIRECT COORDINATES
         atom                   x                   y                   z                 mag                  vx                  vy                  vz
     taud_Si1                   0                   0                   0                   0                   0                   0                   0
     taud_Si2                0.25                0.25                0.25                   0                   0                   0                   0


                          Volume (Bohr^3) = 336.239
                             Volume (A^3) = 49.8255

 Lattice vectors: (Cartesian coordinate: in unit of a_0)
                   +0                +0.5                +0.5
                 +0.5                  +0                +0.5
                 +0.5                +0.5                  +0
 Reciprocal vectors: (Cartesian coordinate: in unit of 2 pi/a_0)
                   -1                  +1                  +1
                   +1                  -1                  +1
                   +1                  +1                  -1




 >>>>>>>>>>>>>>>>>>>>>>>>>>>>>>>>>>>>>>>>>>>>>>>>>>>>>>>>>>>>>>>>>>>>>>
 |                                                                    |
 | Reading pseudopotentials files:                                    |
 | The pseudopotential file is in UPF format. The 'NC' indicates that |
 | the type of pseudopotential is 'norm conserving'. Functional of    |
 | exchange and correlation is decided by 4 given parameters in UPF   |
 | file.  We also read in the 'core correction' if there exists.      |
 | Also we can read the valence electrons number and the maximal      |
 | angular momentum used in this pseudopotential. We also read in the |
 | trail wave function, trail atomic density and local-pseudopotential|
 | on logrithmic grid. The non-local pseudopotential projector is also|
 | read in if there is any.                                           |
 |                                                                    |
 <<<<<<<<<<<<<<<<<<<<<<<<<<<<<<<<<<<<<<<<<<<<<<<<<<<<<<<<<<<<<<<<<<<<<<




                PAO radial cut off (Bohr) = 16

 Read in pseudopotential file is si.lda.lps
                     pseudopotential type = 
                            functional Ex = LDA
                            functional Ec = LDA
                          functional GCEx = NOGX
                          functional GCEc = NOGC
                 nonlocal core correction = 0
                        valence electrons = 4
                                     lmax = 0
                           number of zeta = 0
                     number of projectors = 0
     initial pseudo atomic orbital number = 0
                                   NLOCAL = 18

 SETUP THE ELECTRONS NUMBER
            electron number of element Si = 4
      total electron number of element Si = 8
                           occupied bands = 4
                                   NBANDS = 12
 DONE : SETUP UNITCELL Time : 0.012511 (SEC)





 >>>>>>>>>>>>>>>>>>>>>>>>>>>>>>>>>>>>>>>>>>>>>>>>>>>>>>>>>>>>>>>>>>>>>>
 |                                                                    |
 | Doing symmetry analysis:                                           |
 | We calculate the norm of 3 vectors and the angles between them,    |
 | the type of Bravais lattice is given. We can judge if the unticell |
 | is a primitive cell. Finally we give the point group operation for |
 | this unitcell. We we use the point group operations to do symmetry |
 | analysis on given k-point mesh and the charge density.             |
 |                                                                    |
 <<<<<<<<<<<<<<<<<<<<<<<<<<<<<<<<<<<<<<<<<<<<<<<<<<<<<<<<<<<<<<<<<<<<<<




 LATTICE VECTORS: (CARTESIAN COORDINATE: IN UNIT OF A0)
                   +0                +0.5                +0.5
                 +0.5                  +0                +0.5
                 +0.5                +0.5                  +0
                       right hand lattice = 1
                                   NORM_A = 0.707107
                                   NORM_B = 0.707107
                                   NORM_C = 0.707107
                           ALPHA (DEGREE) = 60
                           BETA  (DEGREE) = 60
                           GAMMA (DEGREE) = 60
                             BRAVAIS TYPE = 3
                     BRAVAIS LATTICE NAME = 03. Cubic F (face-centered)
 STANDARD LATTICE VECTORS: (CARTESIAN COORDINATE: IN UNIT OF A0)
                   +0                +0.5                +0.5
                 +0.5                  +0                +0.5
                 +0.5                +0.5                  +0
                                    IBRAV = 3
                                  BRAVAIS = FACE CENTERED CUBIC
                       LATTICE CONSTANT A = 4.12311
                                    ibrav = 3
                        ROTATION MATRICES = 48
              PURE POINT GROUP OPERATIONS = 24
                   SPACE GROUP OPERATIONS = 48
                                       C2 = 3
                                       C3 = 8
                                       C4 = 0
                                       C6 = 0
                                       S1 = 6
                                       S3 = 0
                                       S4 = 6
                                       S6 = 0
                              POINT GROUP = T_d
 DONE : SYMMETRY Time : 0.067826 (SEC)





 >>>>>>>>>>>>>>>>>>>>>>>>>>>>>>>>>>>>>>>>>>>>>>>>>>>>>>>>>>>>>>>>>>>>>>
 |                                                                    |
 | Setup K-points                                                     |
 | We setup the k-points according to input parameters.               |
 | The reduced k-points are set according to symmetry operations.     |
 | We treat the spin as another set of k-points.                      |
 |                                                                    |
 <<<<<<<<<<<<<<<<<<<<<<<<<<<<<<<<<<<<<<<<<<<<<<<<<<<<<<<<<<<<<<<<<<<<<<





 SETUP K-POINTS
                                    nspin = 1
                   Input type of k points = Monkhorst-Pack(Gamma)
                                   nkstot = 1728
                               nkstot_ibz = 72
      IBZ             DirectX             DirectY             DirectZ              Weight    ibz2bz
        1                   0                   0                   0         0.000578704         0
        2            0.916667            0.916667            0.916667          0.00462963         1
        3            0.833333            0.833333            0.833333          0.00462963         2
        4                0.75                0.75                0.75          0.00462963         3
        5            0.666667            0.666667            0.666667          0.00462963         4
        6            0.583333            0.583333            0.583333          0.00462963         5
        7                 0.5                 0.5                 0.5          0.00231481         6
        8                   0            0.916667            0.916667          0.00347222        13
        9            0.916667            0.833333            0.833333           0.0138889        14
       10            0.833333                0.75                0.75           0.0138889        15
       11            0.916667            0.916667                0.25           0.0138889        16
       12            0.916667            0.916667            0.333333           0.0138889        17
       13            0.916667            0.916667            0.416667           0.0138889        18
       14            0.916667            0.916667                 0.5           0.0138889        19
       15            0.916667            0.916667            0.583333           0.0138889        20
       16            0.916667            0.916667            0.666667           0.0138889        21
       17            0.916667            0.916667                0.75           0.0138889        22
       18            0.916667            0.916667            0.833333          0.00694444        23
       19            0.833333            0.833333                   0          0.00347222        26
       20            0.916667                0.75                0.75           0.0138889        27
       21            0.666667            0.666667            0.833333           0.0138889        28
       22            0.833333            0.833333                0.25           0.0138889        29
       23            0.833333            0.833333            0.333333           0.0138889        30
       24            0.833333            0.833333            0.416667           0.0138889        31
       25            0.833333            0.833333                 0.5           0.0138889        32
       26            0.833333            0.833333            0.583333           0.0138889        33
       27            0.833333            0.833333            0.666667          0.00694444        34
       28                   0                0.75                0.75          0.00347222        39
       29            0.916667            0.666667            0.666667           0.0138889        40
       30            0.833333            0.583333            0.583333           0.0138889        41
       31                0.75                0.75                0.25           0.0138889        42
       32                0.75                0.75            0.333333           0.0138889        43
       33                0.75                0.75            0.416667           0.0138889        44
       34                0.75                0.75                 0.5          0.00694444        45
       35                   0            0.666667            0.666667          0.00347222        52
       36            0.916667            0.583333            0.583333           0.0138889        53
       37            0.833333                 0.5                 0.5           0.0138889        54
       38            0.666667            0.666667                0.25           0.0138889        55
       39            0.666667            0.666667            0.333333          0.00694444        56
       40            0.583333            0.583333                   0          0.00347222        65
       41            0.916667                 0.5                 0.5           0.0138889        66
       42            0.833333            0.416667            0.416667          0.00694444        67
       43                   0                 0.5                 0.5          0.00173611        78
       44            0.916667            0.833333                0.75           0.0138889       171
       45            0.916667            0.833333            0.666667           0.0277778       172
       46            0.916667            0.833333            0.583333           0.0277778       173
       47            0.916667            0.833333                 0.5           0.0277778       174
       48            0.916667            0.833333            0.416667           0.0138889       175
       49            0.916667                0.75            0.666667           0.0138889       184
       50            0.916667                0.75            0.583333           0.0277778       185
       51            0.916667                0.75                 0.5           0.0277778       186
       52            0.916667                0.75            0.416667           0.0277778       187
       53            0.916667                0.75            0.333333           0.0277778       188
       54            0.833333                0.75                 0.5           0.0277778       189
       55            0.833333                0.75            0.583333           0.0138889       190
       56            0.916667            0.666667            0.583333           0.0138889       197
       57            0.916667            0.666667                 0.5           0.0277778       198
       58            0.916667            0.666667            0.416667           0.0277778       199
       59            0.916667            0.666667            0.333333           0.0277778       200
       60            0.916667            0.666667                0.25           0.0138889       201
       61            0.916667            0.583333                 0.5           0.0138889       210
       62            0.916667            0.583333            0.416667           0.0277778       211
       63            0.916667            0.583333            0.333333           0.0138889       212
       64            0.916667                 0.5            0.416667          0.00694444       223
       65            0.833333            0.666667                 0.5           0.0138889       342
       66            0.833333            0.666667            0.416667           0.0277778       343
       67            0.833333            0.666667            0.333333           0.0138889       344
       68            0.833333            0.583333            0.416667           0.0138889       355
       69            0.833333            0.583333            0.333333           0.0277778       356
       70            0.833333            0.583333                0.25           0.0138889       357
       71            0.833333                 0.5            0.333333          0.00694444       368
       72                0.75                 0.5                0.25          0.00347222       513
                               nkstot now = 72

  KPOINTS            DIRECT_X            DIRECT_Y            DIRECT_Z              WEIGHT
        1                   0                   0                   0         0.000578704
        2            0.916667            0.916667            0.916667          0.00462963
        3            0.833333            0.833333            0.833333          0.00462963
        4                0.75                0.75                0.75          0.00462963
        5            0.666667            0.666667            0.666667          0.00462963
        6            0.583333            0.583333            0.583333          0.00462963
        7                 0.5                 0.5                 0.5          0.00231481
        8                   0            0.916667            0.916667          0.00347222
        9            0.916667            0.833333            0.833333           0.0138889
       10            0.833333                0.75                0.75           0.0138889
       11            0.916667            0.916667                0.25           0.0138889
       12            0.916667            0.916667            0.333333           0.0138889
       13            0.916667            0.916667            0.416667           0.0138889
       14            0.916667            0.916667                 0.5           0.0138889
       15            0.916667            0.916667            0.583333           0.0138889
       16            0.916667            0.916667            0.666667           0.0138889
       17            0.916667            0.916667                0.75           0.0138889
       18            0.916667            0.916667            0.833333          0.00694444
       19            0.833333            0.833333                   0          0.00347222
       20            0.916667                0.75                0.75           0.0138889
       21            0.666667            0.666667            0.833333           0.0138889
       22            0.833333            0.833333                0.25           0.0138889
       23            0.833333            0.833333            0.333333           0.0138889
       24            0.833333            0.833333            0.416667           0.0138889
       25            0.833333            0.833333                 0.5           0.0138889
       26            0.833333            0.833333            0.583333           0.0138889
       27            0.833333            0.833333            0.666667          0.00694444
       28                   0                0.75                0.75          0.00347222
       29            0.916667            0.666667            0.666667           0.0138889
       30            0.833333            0.583333            0.583333           0.0138889
       31                0.75                0.75                0.25           0.0138889
       32                0.75                0.75            0.333333           0.0138889
       33                0.75                0.75            0.416667           0.0138889
       34                0.75                0.75                 0.5          0.00694444
       35                   0            0.666667            0.666667          0.00347222
       36            0.916667            0.583333            0.583333           0.0138889
       37            0.833333                 0.5                 0.5           0.0138889
       38            0.666667            0.666667                0.25           0.0138889
       39            0.666667            0.666667            0.333333          0.00694444
       40            0.583333            0.583333                   0          0.00347222
       41            0.916667                 0.5                 0.5           0.0138889
       42            0.833333            0.416667            0.416667          0.00694444
       43                   0                 0.5                 0.5          0.00173611
       44            0.916667            0.833333                0.75           0.0138889
       45            0.916667            0.833333            0.666667           0.0277778
       46            0.916667            0.833333            0.583333           0.0277778
       47            0.916667            0.833333                 0.5           0.0277778
       48            0.916667            0.833333            0.416667           0.0138889
       49            0.916667                0.75            0.666667           0.0138889
       50            0.916667                0.75            0.583333           0.0277778
       51            0.916667                0.75                 0.5           0.0277778
       52            0.916667                0.75            0.416667           0.0277778
       53            0.916667                0.75            0.333333           0.0277778
       54            0.833333                0.75                 0.5           0.0277778
       55            0.833333                0.75            0.583333           0.0138889
       56            0.916667            0.666667            0.583333           0.0138889
       57            0.916667            0.666667                 0.5           0.0277778
       58            0.916667            0.666667            0.416667           0.0277778
       59            0.916667            0.666667            0.333333           0.0277778
       60            0.916667            0.666667                0.25           0.0138889
       61            0.916667            0.583333                 0.5           0.0138889
       62            0.916667            0.583333            0.416667           0.0277778
       63            0.916667            0.583333            0.333333           0.0138889
       64            0.916667                 0.5            0.416667          0.00694444
       65            0.833333            0.666667                 0.5           0.0138889
       66            0.833333            0.666667            0.416667           0.0277778
       67            0.833333            0.666667            0.333333           0.0138889
       68            0.833333            0.583333            0.416667           0.0138889
       69            0.833333            0.583333            0.333333           0.0277778
       70            0.833333            0.583333                0.25           0.0138889
       71            0.833333                 0.5            0.333333          0.00694444
       72                0.75                 0.5                0.25          0.00347222

           k-point number in this process = 72
       minimum distributed K point number = 72

  KPOINTS         CARTESIAN_X         CARTESIAN_Y         CARTESIAN_Z              WEIGHT
        1                   0                   0                   0          0.00115741
        2            0.916667            0.916667            0.916667          0.00925926
        3            0.833333            0.833333            0.833333          0.00925926
        4                0.75                0.75                0.75          0.00925926
        5            0.666667            0.666667            0.666667          0.00925926
        6            0.583333            0.583333            0.583333          0.00925926
        7                 0.5                 0.5                 0.5          0.00462963
        8             1.83333                   0                   0          0.00694444
        9                0.75            0.916667            0.916667           0.0277778
       10            0.666667            0.833333            0.833333           0.0277778
       11                0.25                0.25             1.58333           0.0277778
       12            0.333333            0.333333                 1.5           0.0277778
       13            0.416667            0.416667             1.41667           0.0277778
       14                 0.5                 0.5             1.33333           0.0277778
       15            0.583333            0.583333                1.25           0.0277778
       16            0.666667            0.666667             1.16667           0.0277778
       17                0.75                0.75             1.08333           0.0277778
       18            0.833333            0.833333                   1           0.0138889
       19                   0                   0             1.66667          0.00694444
       20            0.583333            0.916667            0.916667           0.0277778
       21            0.833333            0.833333                 0.5           0.0277778
       22                0.25                0.25             1.41667           0.0277778
       23            0.333333            0.333333             1.33333           0.0277778
       24            0.416667            0.416667                1.25           0.0277778
       25                 0.5                 0.5             1.16667           0.0277778
       26            0.583333            0.583333             1.08333           0.0277778
       27            0.666667            0.666667                   1           0.0138889
       28                 1.5                   0                   0          0.00694444
       29            0.416667            0.916667            0.916667           0.0277778
       30            0.333333            0.833333            0.833333           0.0277778
       31                0.25                0.25                1.25           0.0277778
       32            0.333333            0.333333             1.16667           0.0277778
       33            0.416667            0.416667             1.08333           0.0277778
       34                 0.5                 0.5                   1           0.0138889
       35             1.33333                   0                   0          0.00694444
       36                0.25            0.916667            0.916667           0.0277778
       37            0.166667            0.833333            0.833333           0.0277778
       38                0.25                0.25             1.08333           0.0277778
       39            0.333333            0.333333                   1           0.0138889
       40                   0                   0             1.16667          0.00694444
       41           0.0833333            0.916667            0.916667           0.0277778
       42                   0            0.833333            0.833333           0.0138889
       43                   1                   0                   0          0.00347222
       44            0.666667            0.833333                   1           0.0277778
       45            0.583333                0.75             1.08333           0.0555556
       46                 0.5            0.666667             1.16667           0.0555556
       47            0.416667            0.583333                1.25           0.0555556
       48            0.333333                 0.5             1.33333           0.0277778
       49                 0.5            0.833333                   1           0.0277778
       50            0.416667                0.75             1.08333           0.0555556
       51            0.333333            0.666667             1.16667           0.0555556
       52                0.25            0.583333                1.25           0.0555556
       53            0.166667                 0.5             1.33333           0.0555556
       54            0.416667            0.583333             1.08333           0.0555556
       55                 0.5            0.666667                   1           0.0277778
       56            0.333333            0.833333                   1           0.0277778
       57                0.25                0.75             1.08333           0.0555556
       58            0.166667            0.666667             1.16667           0.0555556
       59           0.0833333            0.583333                1.25           0.0555556
       60                   0                 0.5             1.33333           0.0277778
       61            0.166667            0.833333                   1           0.0277778
       62           0.0833333                0.75             1.08333           0.0555556
       63                   0            0.666667             1.16667           0.0277778
       64                   0            0.833333                   1           0.0138889
       65            0.333333            0.666667                   1           0.0277778
       66                0.25            0.583333             1.08333           0.0555556
       67            0.166667                 0.5             1.16667           0.0277778
       68            0.166667            0.666667                   1           0.0277778
       69           0.0833333            0.583333             1.08333           0.0555556
       70                   0                 0.5             1.16667           0.0277778
       71                   0            0.666667                   1           0.0138889
       72                   0                 0.5                   1          0.00694444

  KPOINTS            DIRECT_X            DIRECT_Y            DIRECT_Z              WEIGHT
        1                   0                   0                   0          0.00115741
        2            0.916667            0.916667            0.916667          0.00925926
        3            0.833333            0.833333            0.833333          0.00925926
        4                0.75                0.75                0.75          0.00925926
        5            0.666667            0.666667            0.666667          0.00925926
        6            0.583333            0.583333            0.583333          0.00925926
        7                 0.5                 0.5                 0.5          0.00462963
        8                   0            0.916667            0.916667          0.00694444
        9            0.916667            0.833333            0.833333           0.0277778
       10            0.833333                0.75                0.75           0.0277778
       11            0.916667            0.916667                0.25           0.0277778
       12            0.916667            0.916667            0.333333           0.0277778
       13            0.916667            0.916667            0.416667           0.0277778
       14            0.916667            0.916667                 0.5           0.0277778
       15            0.916667            0.916667            0.583333           0.0277778
       16            0.916667            0.916667            0.666667           0.0277778
       17            0.916667            0.916667                0.75           0.0277778
       18            0.916667            0.916667            0.833333           0.0138889
       19            0.833333            0.833333                   0          0.00694444
       20            0.916667                0.75                0.75           0.0277778
       21            0.666667            0.666667            0.833333           0.0277778
       22            0.833333            0.833333                0.25           0.0277778
       23            0.833333            0.833333            0.333333           0.0277778
       24            0.833333            0.833333            0.416667           0.0277778
       25            0.833333            0.833333                 0.5           0.0277778
       26            0.833333            0.833333            0.583333           0.0277778
       27            0.833333            0.833333            0.666667           0.0138889
       28                   0                0.75                0.75          0.00694444
       29            0.916667            0.666667            0.666667           0.0277778
       30            0.833333            0.583333            0.583333           0.0277778
       31                0.75                0.75                0.25           0.0277778
       32                0.75                0.75            0.333333           0.0277778
       33                0.75                0.75            0.416667           0.0277778
       34                0.75                0.75                 0.5           0.0138889
       35                   0            0.666667            0.666667          0.00694444
       36            0.916667            0.583333            0.583333           0.0277778
       37            0.833333                 0.5                 0.5           0.0277778
       38            0.666667            0.666667                0.25           0.0277778
       39            0.666667            0.666667            0.333333           0.0138889
       40            0.583333            0.583333                   0          0.00694444
       41            0.916667                 0.5                 0.5           0.0277778
       42            0.833333            0.416667            0.416667           0.0138889
       43                   0                 0.5                 0.5          0.00347222
       44            0.916667            0.833333                0.75           0.0277778
       45            0.916667            0.833333            0.666667           0.0555556
       46            0.916667            0.833333            0.583333           0.0555556
       47            0.916667            0.833333                 0.5           0.0555556
       48            0.916667            0.833333            0.416667           0.0277778
       49            0.916667                0.75            0.666667           0.0277778
       50            0.916667                0.75            0.583333           0.0555556
       51            0.916667                0.75                 0.5           0.0555556
       52            0.916667                0.75            0.416667           0.0555556
       53            0.916667                0.75            0.333333           0.0555556
       54            0.833333                0.75                 0.5           0.0555556
       55            0.833333                0.75            0.583333           0.0277778
       56            0.916667            0.666667            0.583333           0.0277778
       57            0.916667            0.666667                 0.5           0.0555556
       58            0.916667            0.666667            0.416667           0.0555556
       59            0.916667            0.666667            0.333333           0.0555556
       60            0.916667            0.666667                0.25           0.0277778
       61            0.916667            0.583333                 0.5           0.0277778
       62            0.916667            0.583333            0.416667           0.0555556
       63            0.916667            0.583333            0.333333           0.0277778
       64            0.916667                 0.5            0.416667           0.0138889
       65            0.833333            0.666667                 0.5           0.0277778
       66            0.833333            0.666667            0.416667           0.0555556
       67            0.833333            0.666667            0.333333           0.0277778
       68            0.833333            0.583333            0.416667           0.0277778
       69            0.833333            0.583333            0.333333           0.0555556
       70            0.833333            0.583333                0.25           0.0277778
       71            0.833333                 0.5            0.333333           0.0138889
       72                0.75                 0.5                0.25          0.00694444
 DONE : INIT K-POINTS Time : 0.0860982 (SEC)





 >>>>>>>>>>>>>>>>>>>>>>>>>>>>>>>>>>>>>>>>>>>>>>>>>>>>>>>>>>>>>>>>>>>>>>
 |                                                                    |
 | Setup plane waves:                                                 |
 | Use the energy cutoff and the lattice vectors to generate the      |
 | dimensions of FFT grid. The number of FFT grid on each processor   |
 | is 'nrxx'. The number of plane wave basis in reciprocal space is   |
 | different for charege/potential and wave functions. We also set    |
 | the 'sticks' for the parallel of FFT.                              |
 |                                                                    |
 <<<<<<<<<<<<<<<<<<<<<<<<<<<<<<<<<<<<<<<<<<<<<<<<<<<<<<<<<<<<<<<<<<<<<<





 SETUP THE PLANE WAVE BASIS
     energy cutoff for wavefunc (unit:Ry) = 75
            [fft grid for wave functions] = 45, 45, 45
          [fft grid for charge/potential] = 45, 45, 45
                      [fft grid division] = 1, 1, 1
      [big fft grid for charge/potential] = 45, 45, 45
                                     nbxx = 91125
                                     nrxx = 91125

 SETUP PLANE WAVES FOR CHARGE/POTENTIAL
                    number of plane waves = 29603
                         number of sticks = 1261

 SETUP PLANE WAVES FOR WAVE FUNCTIONS
                    number of plane waves = 5065
                         number of sticks = 385

 PARALLEL PW FOR CHARGE/POTENTIAL
     PROC   COLUMNS(POT)             PW
        1           1261          29603
 --------------- sum -------------------
        1           1261          29603

 PARALLEL PW FOR WAVE FUNCTIONS
     PROC     COLUMNS(W)             PW
        1            385           5065
 --------------- sum -------------------
        1            385           5065

 SETUP COORDINATES OF PLANE WAVES
              number of total plane waves = 29603

 SETUP COORDINATES OF PLANE WAVES
                            number of |g| = 311
                                  max |g| = 923
                                  min |g| = 0
 DONE : INIT PLANEWAVE Time : 0.191736 (SEC)

                                     npwx = 3711

 SETUP NONLOCAL PSEUDOPOTENTIALS IN PLANE WAVE BASIS
 Si non-local projectors:
      TOTAL NUMBER OF NONLOCAL PROJECTORS = 0

 nhm = 0, not allocate some matrix. DONE : LOCAL POTENTIAL Time : 0.260927 (SEC)


 Init Non-Local PseudoPotential table : 
 Init Non-Local-Pseudopotential done.
 DONE : NON-LOCAL POTENTIAL Time : 0.260988 (SEC)

                                start_pot = atomic
 DONE : INIT POTENTIAL Time : 0.325565 (SEC)


 Make real space PAO into reciprocal space.
       max mesh points in Pseudopotential = 1601
     dq(describe PAO in reciprocal space) = 0.01
                                    max q = 1045

 number of pseudo atomic orbitals for Si is 0
 DONE : INIT BASIS Time : 16.3772 (SEC)


 -------------------------------------------
 SELF-CONSISTENT
 -------------------------------------------

 PW ALGORITHM --------------- ION=   1  ELEC=   1--------------------------------
  K-point    CG iter num      Time(Sec)
        1       5.916667       1.790115
        2       6.833333       1.943705
        3       7.166667       2.000773
        4       6.833333       1.955758
        5       7.500000       2.110312
        6       6.833333       2.144376
        7       6.416667       2.007715
        8       6.750000       2.057341
        9       6.416667       1.989072
       10       7.416667       2.138940
       11       6.916667       1.965909
       12       7.250000       2.166281
       13       6.333333       2.033179
       14       7.500000       2.261472
       15       7.500000       2.238584
       16       7.416667       2.359799
       17       7.083333       1.985605
       18       6.083333       1.741921
       19       7.250000       2.043666
       20       7.666667       2.174684
       21       7.916667       2.221063
       22       7.166667       1.890730
       23       7.333333       2.080642
       24       6.583333       1.887894
       25       8.000000       2.309518
       26       6.750000       1.945698
       27       6.750000       2.065414
       28       6.750000       2.171089
       29       7.833333       2.457590
       30       7.250000       2.327410
       31       6.666667       2.010792
       32       7.166667       2.170358
       33       7.166667       2.079025
       34       6.083333       1.717898
       35       7.250000       2.047728
       36       7.416667       1.901814
       37       7.166667       1.845414
       38       7.333333       1.772755
       39       7.333333       2.073719
       40       6.333333       1.689552
       41       7.250000       2.018270
       42       7.166667       1.868620
       43       6.250000       1.516997
       44       8.000000       2.220507
       45       6.916667       1.920506
       46       7.916667       2.037917
       47       7.583333       2.290308
       48       6.166667       1.881064
       49       7.333333       2.227778
       50       6.833333       2.111993
       51       6.833333       2.097963
       52       7.416667       2.182728
       53       6.583333       1.980991
       54       7.666667       2.236617
       55       7.583333       1.918151
       56       7.166667       2.074633
       57       7.833333       2.316439
       58       7.166667       2.021098
       59       7.000000       2.212312
       60       7.083333       1.963807
       61       7.583333       2.195765
       62       7.750000       2.325716
       63       7.583333       2.403784
       64       7.666667       2.160060
       65       7.083333       2.185205
       66       8.416667       2.556884
       67       7.916667       2.455462
       68       7.333333       2.247669
       69       7.500000       2.143049
       70       6.916667       1.939019
       71       6.416667       2.068895
       72       7.250000       2.241686

 Density error is 1.285383667794
                          Error Threshold = 0.010000000000

       Energy                       Rydberg                            eV
   E_KohnSham              -15.972029992912             -217.310616530501
     E_Harris              -16.524579789139             -224.828442187933
      E_Fermi               +0.100409323165               +1.366138927372

 PW ALGORITHM --------------- ION=   1  ELEC=   2--------------------------------
  K-point    CG iter num      Time(Sec)
        1       2.166667       0.721082
        2       2.166667       0.756845
        3       2.333333       0.827035
        4       2.333333       0.785310
        5       2.416667       0.836650
        6       2.500000       0.851874
        7       2.416667       0.831361
        8       2.250000       0.843677
        9       2.333333       0.791290
       10       2.333333       0.844734
       11       2.416667       0.877616
       12       2.500000       0.879353
       13       2.500000       0.862687
       14       2.500000       0.863025
       15       2.500000       0.889574
       16       2.333333       0.733081
       17       2.333333       0.890675
       18       2.333333       0.940950
       19       2.250000       0.901196
       20       2.250000       0.892351
       21       2.250000       0.898424
       22       2.416667       0.897303
       23       2.500000       0.979003
       24       2.500000       0.999373
       25       2.500000       0.958160
       26       2.250000       0.884215
       27       2.333333       0.906571
       28       2.250000       0.900293
       29       2.583333       0.860685
       30       2.500000       0.930493
       31       2.500000       0.981789
       32       2.583333       1.028520
       33       2.416667       0.992275
       34       2.416667       1.007879
       35       2.333333       0.950950
       36       2.500000       0.956791
       37       2.416667       0.949266
       38       2.416667       0.987357
       39       2.666667       1.053980
       40       2.500000       1.016769
       41       2.500000       0.989851
       42       2.416667       0.973179
       43       2.416667       0.964804
       44       2.250000       0.889156
       45       2.250000       0.835166
       46       2.500000       0.952776
       47       2.416667       1.017921
       48       2.583333       1.023759
       49       2.333333       0.962387
       50       2.416667       0.906728
       51       2.500000       0.968127
       52       2.416667       0.911930
       53       2.500000       0.924511
       54       2.416667       0.937439
       55       2.416667       1.005264
       56       2.416667       0.999255
       57       2.333333       0.948775
       58       2.750000       1.090762
       59       2.500000       1.087879
       60       2.416667       1.039041
       61       2.416667       1.041151
       62       2.583333       1.084735
       63       2.583333       1.066874
       64       2.500000       1.026071
       65       2.500000       1.038596
       66       2.666667       1.107284
       67       2.416667       0.942853
       68       2.500000       0.991882
       69       2.500000       1.005505
       70       2.583333       1.090321
       71       2.583333       1.102812
       72       2.333333       0.983684

 Density error is 0.034559270253
                          Error Threshold = 0.010000000000

       Energy                       Rydberg                            eV
   E_KohnSham              -16.073265176712             -218.687991868261
     E_Harris              -16.065237355699             -218.578767759961
      E_Fermi               +0.283710684367               +3.860081890865

 PW ALGORITHM --------------- ION=   1  ELEC=   3--------------------------------
  K-point    CG iter num      Time(Sec)
        1       2.583333       0.984708
        2       3.250000       1.205664
        3       3.083333       1.129236
        4       2.916667       1.094026
        5       2.833333       0.974922
        6       3.250000       0.901411
        7       3.250000       1.092174
        8       3.333333       1.168549
        9       3.166667       1.139849
       10       3.083333       1.088340
       11       3.833333       1.333643
       12       3.250000       1.133035
       13       3.666667       1.216791
       14       3.500000       1.248324
       15       3.000000       1.044229
       16       3.083333       1.059182
       17       2.916667       1.017306
       18       3.583333       1.147443
       19       3.250000       0.830912
       20       4.250000       1.076204
       21       3.250000       0.873120
       22       3.583333       0.993426
       23       4.500000       1.433218
       24       3.166667       1.031906
       25       3.000000       0.882067
       26       3.916667       1.076117
       27       3.333333       0.990360
       28       3.250000       1.044834
       29       3.416667       1.126615
       30       2.916667       0.962542
       31       3.750000       1.058618
       32       3.416667       1.074074
       33       3.333333       1.065191
       34       3.666667       1.188587
       35       3.416667       1.110432
       36       3.166667       0.904799
       37       2.833333       0.853300
       38       4.416667       1.157831
       39       3.500000       1.016778
       40       3.750000       1.121081
       41       4.083333       1.302419
       42       3.500000       1.135301
       43       3.916667       1.161378
       44       3.083333       0.792251
       45       3.333333       0.816704
       46       3.000000       0.784079
       47       4.000000       1.122769
       48       3.000000       0.919375
       49       3.250000       1.085199
       50       3.583333       1.195840
       51       3.250000       1.132696
       52       3.083333       1.075976
       53       2.916667       1.039095
       54       3.250000       1.116213
       55       3.416667       1.154644
       56       3.333333       1.118976
       57       3.666667       1.230735
       58       2.916667       1.009977
       59       3.250000       1.108177
       60       4.083333       1.290852
       61       3.333333       0.981679
       62       3.000000       0.922423
       63       3.000000       0.931196
       64       3.250000       0.998323
       65       4.083333       1.279869
       66       2.916667       0.988426
       67       3.000000       0.999351
       68       3.583333       1.134126
       69       3.083333       1.029443
       70       3.916667       1.247820
       71       2.750000       0.920829
       72       3.000000       0.996634

 Density error is 0.000804552993
                          Error Threshold = 0.000431990878

       Energy                       Rydberg                            eV
   E_KohnSham              -16.077999178910             -218.752401272501
     E_Harris              -16.077784825346             -218.749484842634
      E_Fermi               +0.303598769676               +4.130673173379

 PW ALGORITHM --------------- ION=   1  ELEC=   4--------------------------------
  K-point    CG iter num      Time(Sec)
        1       3.333333       1.067068
        2       3.250000       1.033315
        3       3.000000       0.960740
        4       3.333333       0.999415
        5       3.416667       1.033148
        6       3.583333       1.017830
        7       5.000000       1.242760
        8       2.750000       0.777398
        9       3.500000       0.952369
       10       3.000000       0.966796
       11       3.416667       1.067755
       12       3.833333       1.152691
       13       4.000000       1.158789
       14       3.500000       1.066512
       15       3.666667       1.118003
       16       3.166667       0.932260
       17       3.333333       0.917305
       18       3.583333       0.958639
       19       3.333333       0.914911
       20       3.083333       0.825217
       21       3.416667       0.897685
       22       3.750000       0.957838
       23       3.916667       0.978499
       24       3.500000       0.871692
       25       3.416667       0.836211
       26       3.416667       0.830444
       27       3.250000       0.775631
       28       3.583333       0.805571
       29       3.583333       0.791018
       30       5.250000       1.045501
       31       3.500000       0.757032
       32       3.416667       0.646943
       33       3.166667       0.623557
       34       3.750000       0.703704
       35       3.583333       0.659517
       36       4.083333       0.739370
       37       3.750000       0.763605
       38       3.750000       0.732541
       39       3.666667       0.735627
       40       4.583333       0.888703
       41       3.583333       0.727719
       42       3.833333       0.758620
       43       4.000000       0.731996
       44       3.583333       0.650394
       45       3.416667       0.579154
       46       3.500000       0.412946
       47       3.416667       0.257979
       48       3.750000       0.271592
       49       3.416667       0.249423
       50       3.416667       0.248079
       51       3.916667       0.270555
       52       3.500000       0.241251
       53       3.416667       0.240363
       54       3.750000       0.255545
       55       3.416667       0.241511
       56       5.666667       0.354785
       57       3.500000       0.233780
       58       3.416667       0.245724
       59       3.166667       0.236334
       60       3.583333       0.249656
       61       4.833333       0.342400
       62       3.833333       0.272608
       63       3.833333       0.257449
       64       3.416667       0.268097
       65       4.083333       0.301144
       66       3.583333       0.275364
       67       3.250000       0.248271
       68       3.583333       0.266531
       69       3.583333       0.267840
       70       3.666667       0.271589
       71       3.333333       0.259540
       72       2.916667       0.238532

 Density error is 0.000004137760
                          Error Threshold = 0.000010056912

       Energy                       Rydberg                            eV
   E_KohnSham              -16.078275967475             -218.756167174117
     E_Harris              -16.078273726719             -218.756136687067
      E_Fermi               +0.298151467626               +4.056558826782

 PW ALGORITHM --------------- ION=   1  ELEC=   5--------------------------------
  K-point    CG iter num      Time(Sec)
        1       4.166667       0.273060
        2       4.250000       0.281320
        3       3.916667       0.263276
        4       3.416667       0.213654
        5       3.666667       0.213684
        6       4.250000       0.226163
        7       4.500000       0.235942
        8       4.583333       0.239646
        9       3.916667       0.206449
       10       3.666667       0.198774
       11       3.750000       0.202196
       12       3.916667       0.212336
       13       5.083333       0.265808
       14       4.250000       0.224470
       15       3.916667       0.211930
       16       3.833333       0.210993
       17       3.833333       0.205918
       18       4.583333       0.239306
       19       4.000000       0.213959
       20       3.916667       0.209809
       21       3.916667       0.209407
       22       4.250000       0.215204
       23       4.500000       0.229732
       24       4.166667       0.210124
       25       3.916667       0.200714
       26       4.000000       0.199799
       27       3.833333       0.195916
       28       4.333333       0.215891
       29       4.166667       0.215344
       30       4.416667       0.225331
       31       4.916667       0.245047
       32       4.416667       0.218393
       33       4.083333       0.209448
       34       4.083333       0.205508
       35       4.583333       0.227133
       36       4.250000       0.203629
       37       4.333333       0.187924
       38       4.333333       0.183072
       39       4.416667       0.183214
       40       5.166667       0.210528
       41       5.166667       0.211852
       42       7.500000       0.278726
       43       4.333333       0.152672
       44       4.083333       0.142607
       45       3.833333       0.136315
       46       3.916667       0.140786
       47       4.166667       0.139494
       48       4.166667       0.138832
       49       4.333333       0.143431
       50       4.000000       0.133402
       51       4.250000       0.141747
       52       3.833333       0.128283
       53       4.000000       0.133253
       54       4.000000       0.132937
       55       4.333333       0.149209
       56       4.916667       0.151937
       57       4.750000       0.147441
       58       4.166667       0.132513
       59       4.000000       0.126177
       60       4.333333       0.135932
       61       5.000000       0.153202
       62       4.250000       0.138507
       63       4.000000       0.125065
       64       4.916667       0.150027
       65       4.083333       0.127541
       66       4.166667       0.129633
       67       4.083333       0.127898
       68       4.250000       0.130888
       69       3.833333       0.124908
       70       4.083333       0.129213
       71       3.666667       0.117693
       72       3.833333       0.121749

 Density error is 0.000000355377
                          Error Threshold = 0.000000051722

       Energy                       Rydberg                            eV
   E_KohnSham              -16.078277096941             -218.756182541298
     E_Harris              -16.078277218412             -218.756184193996
       E_band               -0.563744666080               -7.670139675798
   E_one_elec               +2.822097785934              +38.396610201884
    E_Hartree               +1.286781974363              +17.507566935021
         E_xc               -4.570869349787              -62.189867970662
      E_Ewald              -15.616286959865             -212.470484257258
      E_demet               -0.000000547585               -0.000007450283
      E_descf               +0.000000000000               +0.000000000000
     E_efield               +0.000000000000               +0.000000000000
        E_exx               +0.000000000000               +0.000000000000
      E_Fermi               +0.298058918974               +4.055299637766

 charge density convergence is achieved
 final etot is -218.756182541298 eV

 STATE ENERGY(eV) AND OCCUPATIONS    NSPIN == 1
 1/72 kpoint (Cartesian) = 0.00000 0.00000 0.00000 (3695 pws)
       1      -7.503289       0.001157
       2       3.335694       0.001157
       3       4.179978       0.000000
       4       4.179978       0.000000
       5       4.179978       0.000000
       6       6.709092       0.000000
       7       6.709092       0.000000
       8       6.709092       0.000000
       9      10.300247       0.000000
      10      12.624455       0.000000
      11      12.624454       0.000000
      12      14.777354       0.000000

 2/72 kpoint (Cartesian) = 0.916667 0.916667 0.916667 (3701 pws)
       1      -7.428655       0.009259
       2       2.359898       0.009259
       3       4.051076       0.009129
       4       4.051076       0.009129
       5       4.724058       0.000000
       6       6.895258       0.000000
       7       6.895258       0.000000
       8       6.951252       0.000000
       9      10.737632       0.000000
      10      12.268913       0.000000
      11      12.268913       0.000000
      12      14.388042       0.000000

 3/72 kpoint (Cartesian) = 0.833333 0.833333 0.833333 (3698 pws)
       1      -7.208113       0.009259
       2       0.994290       0.009259
       3       3.769049       0.009259
       4       3.769049       0.009259
       5       4.794426       0.000000
       6       7.298084       0.000000
       7       7.298084       0.000000
       8       7.874937       0.000000
       9      11.686786       0.000000
      10      11.832835       0.000000
      11      11.832835       0.000000
      12      13.930513       0.000000

 4/72 kpoint (Cartesian) = 0.750000 0.750000 0.750000 (3693 pws)
       1      -6.854298       0.009259
       2      -0.329206       0.009259
       3       3.476887       0.009259
       4       3.476887       0.009259
       5       4.535333       0.000000
       6       7.637015       0.000000
       7       7.637015       0.000000
       8       9.193675       0.000000
       9      11.838983       0.000000
      10      11.838983       0.000000
      11      12.045037       0.000000
      12      14.589720       0.000000

 5/72 kpoint (Cartesian) = 0.666667 0.666667 0.666667 (3675 pws)
       1      -6.400709       0.009259
       2      -1.504560       0.009259
       3       3.244726       0.009259
       4       3.244726       0.009259
       5       4.271990       0.000000
       6       7.757590       0.000000
       7       7.757590       0.000000
       8      10.641731       0.000000
       9      11.802967       0.000000
      10      12.451922       0.000000
      11      12.451922       0.000000
      12      15.990555       0.000000

 6/72 kpoint (Cartesian) = 0.583333 0.583333 0.583333 (3699 pws)
       1      -5.941236       0.009259
       2      -2.406592       0.009259
       3       3.099383       0.009259
       4       3.099383       0.009259
       5       4.097307       0.000000
       6       7.740378       0.000000
       7       7.740378       0.000000
       8      11.370070       0.000000
       9      12.421276       0.000000
      10      13.574027       0.000000
      11      13.574027       0.000000
      12      15.671484       0.000000

 7/72 kpoint (Cartesian) = 0.500000 0.500000 0.500000 (3708 pws)
       1      -5.716400       0.004630
       2      -2.780363       0.004630
       3       3.050197       0.004630
       4       3.050196       0.004630
       5       4.037177       0.004630
       6       7.718465       0.000000
       7       7.718465       0.000000
       8      11.319446       0.000000
       9      14.033766       0.000000
      10      14.095745       0.000000
      11      14.837220       0.000000
      12      14.837220       0.000000

 8/72 kpoint (Cartesian) = 1.833333 0.000000 0.000000 (3711 pws)
       1      -7.403573       0.006944
       2       2.247016       0.006944
       3       3.811160       0.006944
       4       3.811160       0.006944
       5       5.247758       0.000000
       6       6.379950       0.000000
       7       7.214625       0.000000
       8       7.214625       0.000000
       9      10.868926       0.000000
      10      11.668713       0.000000
      11      12.744435       0.000000
      12      14.988570       0.000000

 9/72 kpoint (Cartesian) = 0.750000 0.916667 0.916667 (3687 pws)
       1      -7.230936       0.027778
       2       1.237610       0.027778
       3       3.485636       0.027778
       4       3.510997       0.027778
       5       5.593167       0.000000
       6       6.414588       0.000000
       7       7.703011       0.000000
       8       7.895763       0.000000
       9      11.103205       0.000000
      10      11.676003       0.000000
      11      12.591462       0.000000
      12      14.532249       0.000000

 10/72 kpoint (Cartesian) = 0.666667 0.833333 0.833333 (3683 pws)
       1      -6.919508       0.027778
       2       0.004853       0.027778
       3       3.136631       0.027778
       4       3.194071       0.027778
       5       5.419210       0.000000
       6       6.913923       0.000000
       7       8.105146       0.000000
       8       8.785361       0.000000
       9      11.074352       0.000000
      10      12.485555       0.000000
      11      12.519659       0.000000
      12      14.516543       0.000000

 11/72 kpoint (Cartesian) = 0.250000 0.250000 1.583333 (3692 pws)
       1      -6.493159       0.027778
       2      -1.177408       0.027778
       3       2.774368       0.027778
       4       2.989966       0.027778
       5       5.154837       0.000000
       6       7.329869       0.000000
       7       8.239881       0.000000
       8       9.650466       0.000000
       9      11.799534       0.000000
      10      12.518657       0.000000
      11      12.996172       0.000000
      12      15.650888       0.000000

 12/72 kpoint (Cartesian) = 0.333333 0.333333 1.500000 (3702 pws)
       1      -6.017230       0.027778
       2      -2.165627       0.027778
       3       2.492325       0.027778
       4       2.893001       0.027778
       5       4.943626       0.000000
       6       7.491310       0.000000
       7       8.158806       0.000000
       8      10.684745       0.000000
       9      12.236926       0.000000
      10      13.242141       0.000000
      11      14.012677       0.000000
      12      15.704054       0.000000

 13/72 kpoint (Cartesian) = 0.416667 0.416667 1.416667 (3693 pws)
       1      -5.675887       0.027778
       2      -2.744357       0.027778
       3       2.316533       0.027778
       4       2.907048       0.027778
       5       4.827334       0.000000
       6       7.571172       0.000000
       7       8.020270       0.000000
       8      11.464021       0.000000
       9      12.749878       0.000000
      10      14.178487       0.000000
      11      14.743919       0.000000
      12      14.765958       0.000000

 14/72 kpoint (Cartesian) = 0.500000 0.500000 1.333333 (3695 pws)
       1      -5.756375       0.027778
       2      -2.615342       0.027778
       3       2.259096       0.027778
       4       3.027048       0.027778
       5       4.819981       0.000000
       6       7.687171       0.000000
       7       7.908773       0.000000
       8      11.505367       0.000000
       9      12.668506       0.000000
      10      13.262258       0.000000
      11      14.237062       0.000000
      12      15.402212       0.000000

 15/72 kpoint (Cartesian) = 0.583333 0.583333 1.250000 (3692 pws)
       1      -6.175368       0.027778
       2      -1.864680       0.027778
       3       2.328609       0.027778
       4       3.240476       0.027778
       5       4.920666       0.000000
       6       7.809364       0.000000
       7       7.823522       0.000000
       8      10.648196       0.000000
       9      12.052662       0.000000
      10      12.225440       0.000000
      11      14.060516       0.000000
      12      15.698913       0.000000

 16/72 kpoint (Cartesian) = 0.666667 0.666667 1.166667 (3683 pws)
       1      -6.646799       0.027778
       2      -0.797351       0.027778
       3       2.534033       0.027778
       4       3.523768       0.027778
       5       5.107775       0.000000
       6       7.619488       0.000000
       7       7.806988       0.000000
       8       9.490334       0.000000
       9      11.327524       0.000000
      10      12.225899       0.000000
      11      13.109338       0.000000
      12      15.203793       0.000000

 17/72 kpoint (Cartesian) = 0.750000 0.750000 1.083333 (3688 pws)
       1      -7.038729       0.027778
       2       0.404769       0.027778
       3       2.889668       0.027778
       4       3.828792       0.027778
       5       5.296940       0.000000
       6       7.272071       0.000000
       7       7.374063       0.000000
       8       8.604865       0.000000
       9      11.207364       0.000000
      10      12.028487       0.000000
      11      12.426718       0.000000
      12      14.483657       0.000000

 18/72 kpoint (Cartesian) = 0.833333 0.833333 1.000000 (3699 pws)
       1      -7.305104       0.013889
       2       1.566227       0.013889
       3       3.426577       0.013889
       4       4.053288       0.011835
       5       5.196310       0.000000
       6       6.909499       0.000000
       7       6.936897       0.000000
       8       7.764767       0.000000
       9      11.353136       0.000000
      10      11.599913       0.000000
      11      12.226353       0.000000
      12      14.660408       0.000000

 19/72 kpoint (Cartesian) = 0.000000 0.000000 1.666667 (3667 pws)
       1      -7.106122       0.006944
       2       0.863979       0.006944
       3       3.136094       0.006944
       4       3.136094       0.006944
       5       5.756622       0.000000
       6       6.386745       0.000000
       7       8.293033       0.000000
       8       8.293033       0.000000
       9      10.491644       0.000000
      10      12.200856       0.000000
      11      13.104304       0.000000
      12      15.624160       0.000000

 20/72 kpoint (Cartesian) = 0.583333 0.916667 0.916667 (3680 pws)
       1      -6.839226       0.027778
       2      -0.003491       0.027778
       3       2.723381       0.027778
       4       2.832240       0.027778
       5       5.740989       0.000000
       6       6.580466       0.000000
       7       8.775357       0.000000
       8       8.828101       0.000000
       9      10.634882       0.000000
      10      13.082174       0.000000
      11      13.223263       0.000000
      12      15.364598       0.000000

 21/72 kpoint (Cartesian) = 0.833333 0.833333 0.500000 (3684 pws)
       1      -6.446851       0.027778
       2      -1.023760       0.027778
       3       2.222851       0.027778
       4       2.626035       0.027778
       5       5.792631       0.000000
       6       6.964385       0.000000
       7       8.793916       0.000000
       8       9.078662       0.000000
       9      11.804948       0.000000
      10      13.548026       0.000000
      11      13.606486       0.000000
      12      15.746404       0.000000

 22/72 kpoint (Cartesian) = 0.250000 0.250000 1.416667 (3691 pws)
       1      -5.973602       0.027778
       2      -1.986630       0.027778
       3       1.784224       0.027778
       4       2.538244       0.027778
       5       5.660344       0.000000
       6       7.495777       0.000000
       7       9.020705       0.000000
       8       9.126780       0.000000
       9      13.192777       0.000000
      10      13.515332       0.000000
      11      14.517449       0.000000
      12      15.812813       0.000000

 23/72 kpoint (Cartesian) = 0.333333 0.333333 1.333333 (3688 pws)
       1      -5.551036       0.027778
       2      -2.686681       0.027778
       3       1.471641       0.027778
       4       2.573851       0.027778
       5       5.559622       0.000000
       6       7.690973       0.000000
       7       8.824082       0.000000
       8      10.170778       0.000000
       9      12.972702       0.000000
      10      14.430261       0.000000
      11      14.667939       0.000000
      12      15.077480       0.000000

 24/72 kpoint (Cartesian) = 0.416667 0.416667 1.250000 (3687 pws)
       1      -5.476775       0.027778
       2      -2.796660       0.027778
       3       1.309684       0.027778
       4       2.727389       0.027778
       5       5.554308       0.000000
       6       7.799519       0.000000
       7       8.610711       0.000000
       8      11.351571       0.000000
       9      12.127375       0.000000
      10      13.106203       0.000000
      11      13.979621       0.000000
      12      16.556025       0.000000

 25/72 kpoint (Cartesian) = 0.500000 0.500000 1.166667 (3690 pws)
       1      -5.829942       0.027778
       2      -2.238540       0.027778
       3       1.320539       0.027778
       4       2.982562       0.027778
       5       5.641255       0.000000
       6       7.952303       0.000000
       7       8.387321       0.000000
       8      10.409747       0.000000
       9      11.842072       0.000000
      10      12.861959       0.000000
      11      14.470908       0.000000
      12      16.043171       0.000000

 26/72 kpoint (Cartesian) = 0.583333 0.583333 1.083333 (3693 pws)
       1      -6.307812       0.027778
       2      -1.351922       0.027778
       3       1.542540       0.027778
       4       3.305914       0.027778
       5       5.769008       0.000000
       6       8.009309       0.000000
       7       8.064266       0.000000
       8       9.315758       0.000000
       9      11.069212       0.000000
      10      13.299882       0.000000
      11      14.306578       0.000000
      12      15.739407       0.000000

 27/72 kpoint (Cartesian) = 0.666667 0.666667 1.000000 (3703 pws)
       1      -6.731153       0.013889
       2      -0.407727       0.013889
       3       2.046464       0.013889
       4       3.629930       0.013889
       5       5.759945       0.000000
       6       7.598397       0.000000
       7       7.615850       0.000000
       8       8.959367       0.000000
       9      10.895151       0.000000
      10      12.830218       0.000000
      11      13.187050       0.000000
      12      15.281212       0.000000

 28/72 kpoint (Cartesian) = 1.500000 0.000000 0.000000 (3655 pws)
       1      -6.616198       0.006944
       2      -0.484730       0.006944
       3       2.509660       0.006944
       4       2.509660       0.006944
       5       5.203374       0.000000
       6       6.615301       0.000000
       7       9.572856       0.000000
       8       9.572856       0.000000
       9      10.480518       0.000000
      10      13.703830       0.000000
      11      13.880939       0.000000
      12      16.674679       0.000000

 29/72 kpoint (Cartesian) = 0.416667 0.916667 0.916667 (3671 pws)
       1      -6.261432       0.027778
       2      -1.238232       0.027778
       3       2.072998       0.027778
       4       2.284156       0.027778
       5       5.282150       0.000000
       6       6.505818       0.000000
       7       9.587160       0.000000
       8      10.064196       0.000000
       9      11.673889       0.000000
      10      14.130629       0.000000
      11      14.626737       0.000000
      12      16.666382       0.000000

 30/72 kpoint (Cartesian) = 0.333333 0.833333 0.833333 (3675 pws)
       1      -5.804560       0.027778
       2      -2.052004       0.027778
       3       1.492662       0.027778
       4       2.180444       0.027778
       5       5.459653       0.000000
       6       6.988895       0.000000
       7       9.307932       0.000000
       8      10.142714       0.000000
       9      13.354945       0.000000
      10      14.542530       0.000000
      11      14.964314       0.000000
      12      16.532922       0.000000

 31/72 kpoint (Cartesian) = 0.250000 0.250000 1.250000 (3685 pws)
       1      -5.334329       0.027778
       2      -2.752575       0.027778
       3       1.003166       0.027778
       4       2.206322       0.027778
       5       5.483725       0.000000
       6       8.053541       0.000000
       7       9.168920       0.000000
       8       9.953251       0.000000
       9      13.457254       0.000000
      10      14.716018       0.000000
      11      15.035942       0.000000
      12      15.856737       0.000000

 32/72 kpoint (Cartesian) = 0.333333 0.333333 1.166667 (3680 pws)
       1      -5.117398       0.027778
       2      -3.037649       0.027778
       3       0.702398       0.027778
       4       2.358392       0.027778
       5       5.562151       0.000000
       6       8.721293       0.000000
       7       9.665822       0.000000
       8       9.849993       0.000000
       9      11.910180       0.000000
      10      13.128989       0.000000
      11      15.459134       0.000000
      12      16.867996       0.000000

 33/72 kpoint (Cartesian) = 0.416667 0.416667 1.083333 (3694 pws)
       1      -5.390237       0.027778
       2      -2.675474       0.027778
       3       0.645287       0.027778
       4       2.621441       0.027778
       5       5.728451       0.000000
       6       8.822231       0.000000
       7       9.291914       0.000000
       8      10.241104       0.000000
       9      11.523022       0.000000
      10      11.879980       0.000000
      11      15.574031       0.000000
      12      17.258261       0.000000

 34/72 kpoint (Cartesian) = 0.500000 0.500000 1.000000 (3669 pws)
       1      -5.864036       0.013889
       2      -2.009153       0.013889
       3       0.901255       0.013889
       4       2.961152       0.013889
       5       5.893956       0.000000
       6       8.729020       0.000000
       7       8.771524       0.000000
       8       9.148971       0.000000
       9      11.190435       0.000000
      10      13.074105       0.000000
      11      15.344018       0.000000
      12      16.162815       0.000000

 35/72 kpoint (Cartesian) = 1.333333 0.000000 0.000000 (3691 pws)
       1      -5.943138       0.006944
       2      -1.776118       0.006944
       3       2.032346       0.006944
       4       2.032346       0.006944
       5       4.848534       0.000000
       6       6.000877       0.000000
       7      10.930644       0.000000
       8      10.930644       0.000000
       9      11.654727       0.000000
      10      14.542608       0.000000
      11      15.532534       0.000000
      12      17.797702       0.000000

 36/72 kpoint (Cartesian) = 0.250000 0.916667 0.916667 (3680 pws)
       1      -5.510535       0.027778
       2      -2.436024       0.027778
       3       1.623656       0.027778
       4       1.900983       0.027778
       5       5.011739       0.000000
       6       5.905770       0.000000
       7      10.866831       0.000000
       8      11.336360       0.000000
       9      13.154848       0.000000
      10      15.245823       0.000000
      11      15.442886       0.000000
      12      16.799495       0.000000

 37/72 kpoint (Cartesian) = 0.166667 0.833333 0.833333 (3692 pws)
       1      -5.019376       0.027778
       2      -3.067487       0.027778
       3       1.033505       0.027778
       4       1.901341       0.027778
       5       5.173115       0.000000
       6       6.658899       0.000000
       7      10.581555       0.000000
       8      11.250021       0.000000
       9      13.712662       0.000000
      10      14.907770       0.000000
      11      15.158090       0.000000
      12      16.677596       0.000000

 38/72 kpoint (Cartesian) = 0.250000 0.250000 1.083333 (3686 pws)
       1      -4.694039       0.027778
       2      -3.430901       0.027778
       3       0.574195       0.027778
       4       2.032776       0.027778
       5       5.289509       0.000000
       6       7.985956       0.000000
       7      10.363568       0.000000
       8      10.882698       0.000000
       9      12.040606       0.000000
      10      13.384445       0.000000
      11      16.612905       0.000000
      12      17.606121       0.000000

 39/72 kpoint (Cartesian) = 0.333333 0.333333 1.000000 (3685 pws)
       1      -4.923552       0.013889
       2      -3.171700       0.013889
       3       0.408144       0.013889
       4       2.282964       0.013889
       5       5.499657       0.000000
       6       9.501717       0.000000
       7      10.101666       0.000000
       8      10.229296       0.000000
       9      10.630869       0.000000
      10      12.323866       0.000000
      11      17.081826       0.000000
      12      17.546723       0.000000

 40/72 kpoint (Cartesian) = 0.000000 0.000000 1.166667 (3688 pws)
       1      -5.101056       0.006944
       2      -2.992255       0.006944
       3       1.737462       0.006944
       4       1.737462       0.006944
       5       4.741113       0.000000
       6       5.341097       0.000000
       7      12.260416       0.000000
       8      12.260416       0.000000
       9      13.204871       0.000000
      10      15.620022       0.000000
      11      15.973690       0.000000
      12      16.574762       0.000000

 41/72 kpoint (Cartesian) = 0.083333 0.916667 0.916667 (3686 pws)
       1      -4.606516       0.027778
       2      -3.566998       0.027778
       3       1.395590       0.027778
       4       1.705220       0.027778
       5       4.943270       0.000000
       6       5.457255       0.000000
       7      12.203486       0.000000
       8      12.469630       0.000000
       9      14.026799       0.000000
      10      15.063094       0.000000
      11      15.278311       0.000000
      12      16.713829       0.000000

 42/72 kpoint (Cartesian) = 0.000000 0.833333 0.833333 (3692 pws)
       1      -4.289965       0.013889
       2      -3.874411       0.013889
       3       0.877953       0.013889
       4       1.806646       0.013889
       5       5.069710       0.000000
       6       6.519773       0.000000
       7      11.696405       0.000000
       8      11.952698       0.000000
       9      12.625637       0.000000
      10      14.050685       0.000000
      11      16.151583       0.000000
      12      18.128446       0.000000

 43/72 kpoint (Cartesian) = 1.000000 0.000000 0.000000 (3692 pws)
       1      -4.109876       0.003472
       2      -4.108845       0.003472
       3       1.637978       0.003472
       4       1.637978       0.003472
       5       4.904241       0.000000
       6       4.904444       0.000000
       7      13.035657       0.000000
       8      13.035657       0.000000
       9      14.783926       0.000000
      10      14.784551       0.000000
      11      15.683713       0.000000
      12      15.683713       0.000000

 44/72 kpoint (Cartesian) = 0.666667 0.833333 1.000000 (3687 pws)
       1      -7.011662       0.027778
       2       0.435345       0.027778
       3       2.738588       0.027778
       4       3.458159       0.027778
       5       6.019980       0.000000
       6       6.346641       0.000000
       7       8.076699       0.000000
       8       8.571329       0.000000
       9      10.807714       0.000000
      10      12.494823       0.000000
      11      12.651354       0.000000
      12      15.043233       0.000000

 45/72 kpoint (Cartesian) = 0.583333 0.750000 1.083333 (3688 pws)
       1      -6.659365       0.055556
       2      -0.588211       0.055556
       3       2.187581       0.055556
       4       3.221228       0.055556
       5       5.940770       0.000000
       6       6.867315       0.000000
       7       8.504421       0.000000
       8       8.869104       0.000000
       9      11.165165       0.000000
      10      12.892540       0.000000
      11      13.416496       0.000000
      12      15.278512       0.000000

 46/72 kpoint (Cartesian) = 0.500000 0.666667 1.166667 (3693 pws)
       1      -6.205988       0.055556
       2      -1.618864       0.055556
       3       1.842596       0.055556
       4       2.952066       0.055556
       5       5.736370       0.000000
       6       7.334302       0.000000
       7       8.607435       0.000000
       8       9.422149       0.000000
       9      12.025173       0.000000
      10      12.997223       0.000000
      11      14.382045       0.000000
      12      15.678924       0.000000

 47/72 kpoint (Cartesian) = 0.416667 0.583333 1.250000 (3693 pws)
       1      -5.742323       0.055556
       2      -2.459465       0.055556
       3       1.655570       0.055556
       4       2.759176       0.055556
       5       5.587353       0.000000
       6       7.448807       0.000000
       7       8.586620       0.000000
       8      10.461374       0.000000
       9      12.728523       0.000000
      10      13.301616       0.000000
      11      14.345498       0.000000
      12      15.707920       0.000000

 48/72 kpoint (Cartesian) = 0.333333 0.500000 1.333333 (3694 pws)
       1      -5.511974       0.027778
       2      -2.819715       0.027778
       3       1.596564       0.027778
       4       2.690175       0.027778
       5       5.534479       0.000000
       6       7.449576       0.000000
       7       8.565669       0.000000
       8      11.420634       0.000000
       9      12.229874       0.000000
      10      13.621930       0.000000
      11      14.766987       0.000000
      12      14.900317       0.000000

 49/72 kpoint (Cartesian) = 0.500000 0.833333 1.000000 (3675 pws)
       1      -6.529410       0.027778
       2      -0.739606       0.027778
       3       2.119341       0.027778
       4       2.685451       0.027778
       5       5.812633       0.000000
       6       6.663124       0.000000
       7       8.811995       0.000000
       8       9.440460       0.000000
       9      11.244008       0.000000
      10      13.624622       0.000000
      11      13.900464       0.000000
      12      15.887090       0.000000

 50/72 kpoint (Cartesian) = 0.416667 0.750000 1.083333 (3681 pws)
       1      -6.103886       0.055556
       2      -1.594181       0.055556
       3       1.593898       0.055556
       4       2.454570       0.055556
       5       6.030507       0.000000
       6       7.017786       0.000000
       7       8.588329       0.000000
       8       9.832049       0.000000
       9      12.273810       0.000000
      10      14.084363       0.000000
      11      14.606927       0.000000
      12      16.141706       0.000000

 51/72 kpoint (Cartesian) = 0.333333 0.666667 1.166667 (3684 pws)
       1      -5.622935       0.055556
       2      -2.401664       0.055556
       3       1.208829       0.055556
       4       2.294449       0.055556
       5       6.007229       0.000000
       6       7.647530       0.000000
       7       8.752015       0.000000
       8       9.879545       0.000000
       9      13.311611       0.000000
      10      13.652663       0.000000
      11      15.100486       0.000000
      12      15.884440       0.000000

 52/72 kpoint (Cartesian) = 0.250000 0.583333 1.250000 (3684 pws)
       1      -5.271543       0.055556
       2      -2.910064       0.055556
       3       0.971109       0.055556
       4       2.281878       0.055556
       5       6.012342       0.000000
       6       7.727372       0.000000
       7       9.515064       0.000000
       8      10.127198       0.000000
       9      11.942583       0.000000
      10      14.561745       0.000000
      11      14.992038       0.000000
      12      15.169608       0.000000

 53/72 kpoint (Cartesian) = 0.166667 0.500000 1.333333 (3684 pws)
       1      -5.367897       0.055556
       2      -2.775275       0.055556
       3       0.900756       0.055556
       4       2.419932       0.055556
       5       6.103603       0.000000
       6       7.696532       0.000000
       7       9.433722       0.000000
       8      10.413294       0.000000
       9      11.662566       0.000000
      10      13.168862       0.000000
      11      14.886675       0.000000
      12      16.672991       0.000000

 54/72 kpoint (Cartesian) = 0.416667 0.583333 1.083333 (3687 pws)
       1      -5.802937       0.055556
       2      -2.123752       0.055556
       3       1.038676       0.055556
       4       2.678401       0.055556
       5       6.251975       0.000000
       6       7.608339       0.000000
       7       8.901647       0.000000
       8       9.657377       0.000000
       9      11.950012       0.000000
      10      13.136664       0.000000
      11      15.107106       0.000000
      12      16.242644       0.000000

 55/72 kpoint (Cartesian) = 0.500000 0.666667 1.000000 (3681 pws)
       1      -6.273723       0.027778
       2      -1.324487       0.027778
       3       1.450128       0.027778
       4       2.991543       0.027778
       5       6.327220       0.000000
       6       7.133982       0.000000
       7       8.666109       0.000000
       8       9.117467       0.000000
       9      11.340406       0.000000
      10      13.867214       0.000000
      11      14.186118       0.000000
      12      16.029436       0.000000

 56/72 kpoint (Cartesian) = 0.333333 0.833333 1.000000 (3682 pws)
       1      -5.869475       0.027778
       2      -1.904264       0.027778
       3       1.671303       0.027778
       4       2.050300       0.027778
       5       5.450950       0.000000
       6       6.348967       0.000000
       7       9.603047       0.000000
       8      10.869677       0.000000
       9      12.519593       0.000000
      10      14.871243       0.000000
      11      14.972702       0.000000
      12      17.138506       0.000000

 57/72 kpoint (Cartesian) = 0.250000 0.750000 1.083333 (3690 pws)
       1      -5.391678       0.055556
       2      -2.596579       0.055556
       3       1.170837       0.055556
       4       1.875347       0.055556
       5       5.740347       0.000000
       6       6.855435       0.000000
       7       9.314096       0.000000
       8      11.155754       0.000000
       9      13.586058       0.000000
      10      14.001540       0.000000
      11      15.942971       0.000000
      12      16.414979       0.000000

 58/72 kpoint (Cartesian) = 0.166667 0.666667 1.166667 (3681 pws)
       1      -4.955408       0.055556
       2      -3.144685       0.055556
       3       0.738475       0.055556
       4       1.877239       0.055556
       5       5.833638       0.000000
       6       8.054633       0.000000
       7       9.074466       0.000000
       8      10.929015       0.000000
       9      12.220807       0.000000
      10      14.709770       0.000000
      11      15.399173       0.000000
      12      16.554128       0.000000

 59/72 kpoint (Cartesian) = 0.083333 0.583333 1.250000 (3693 pws)
       1      -4.922170       0.055556
       2      -3.179665       0.055556
       3       0.515664       0.055556
       4       2.039708       0.055556
       5       5.992379       0.000000
       6       8.748267       0.000000
       7       9.691550       0.000000
       8      10.044322       0.000000
       9      11.300913       0.000000
      10      13.215155       0.000000
      11      16.510875       0.000000
      12      16.996581       0.000000

 60/72 kpoint (Cartesian) = 0.000000 0.500000 1.333333 (3702 pws)
       1      -5.327592       0.027778
       2      -2.697104       0.027778
       3       0.592475       0.027778
       4       2.328075       0.027778
       5       6.208032       0.000000
       6       8.455432       0.000000
       7       9.008651       0.000000
       8      10.428510       0.000000
       9      11.609283       0.000000
      10      12.215182       0.000000
      11      16.487986       0.000000
      12      16.831654       0.000000

 61/72 kpoint (Cartesian) = 0.166667 0.833333 1.000000 (3695 pws)
       1      -5.049132       0.027778
       2      -3.032792       0.027778
       3       1.429522       0.027778
       4       1.617842       0.027778
       5       5.314530       0.000000
       6       5.797070       0.000000
       7      10.841376       0.000000
       8      12.171441       0.000000
       9      13.917019       0.000000
      10      14.358682       0.000000
      11      15.953028       0.000000
      12      17.017559       0.000000

 62/72 kpoint (Cartesian) = 0.083333 0.750000 1.083333 (3691 pws)
       1      -4.561636       0.055556
       2      -3.570172       0.055556
       3       0.949252       0.055556
       4       1.573830       0.055556
       5       5.573226       0.000000
       6       6.597929       0.000000
       7      10.547328       0.000000
       8      11.724423       0.000000
       9      13.146022       0.000000
      10      14.737256       0.000000
      11      15.520105       0.000000
      12      17.274948       0.000000

 63/72 kpoint (Cartesian) = 0.000000 0.666667 1.166667 (3692 pws)
       1      -4.490811       0.027778
       2      -3.625726       0.027778
       3       0.562206       0.027778
       4       1.739591       0.027778
       5       5.743965       0.000000
       6       8.002974       0.000000
       7      10.241024       0.000000
       8      10.324259       0.000000
       9      12.385247       0.000000
      10      13.658807       0.000000
      11      16.552892       0.000000
      12      17.983822       0.000000

 64/72 kpoint (Cartesian) = 0.000000 0.833333 1.000000 (3692 pws)
       1      -4.093485       0.013889
       2      -4.092445       0.013889
       3       1.409621       0.013889
       4       1.409662       0.013889
       5       5.428934       0.000000
       6       5.429108       0.000000
       7      12.101385       0.000000
       8      12.101437       0.000000
       9      14.340005       0.000000
      10      14.340262       0.000000
      11      16.000250       0.000000
      12      16.000295       0.000000

 65/72 kpoint (Cartesian) = 0.333333 0.666667 1.000000 (3694 pws)
       1      -5.656265       0.027778
       2      -2.244707       0.027778
       3       1.058107       0.027778
       4       2.154616       0.027778
       5       6.788366       0.000000
       6       6.995377       0.000000
       7       8.292335       0.000000
       8      10.696362       0.000000
       9      12.592364       0.000000
      10      13.440745       0.000000
      11      15.800518       0.000000
      12      16.655621       0.000000

 66/72 kpoint (Cartesian) = 0.250000 0.583333 1.083333 (3689 pws)
       1      -5.178555       0.055556
       2      -2.873052       0.055556
       3       0.750242       0.055556
       4       1.888340       0.055556
       5       6.870293       0.000000
       6       7.566368       0.000000
       7       8.548222       0.000000
       8      10.911022       0.000000
       9      11.950589       0.000000
      10      13.576720       0.000000
      11      16.260270       0.000000
      12      16.556474       0.000000

 67/72 kpoint (Cartesian) = 0.166667 0.500000 1.166667 (3688 pws)
       1      -4.920782       0.027778
       2      -3.187564       0.027778
       3       0.653446       0.027778
       4       1.787089       0.027778
       5       6.862858       0.000000
       6       7.594476       0.000000
       7       9.807765       0.000000
       8       9.861278       0.000000
       9      11.493310       0.000000
      10      14.944764       0.000000
      11      15.197872       0.000000
      12      16.221129       0.000000

 68/72 kpoint (Cartesian) = 0.166667 0.666667 1.000000 (3707 pws)
       1      -4.905567       0.027778
       2      -3.160714       0.027778
       3       0.914764       0.027778
       4       1.469777       0.027778
       5       6.629865       0.000000
       6       6.918926       0.000000
       7       8.996530       0.000000
       8      11.475992       0.000000
       9      12.884474       0.000000
      10      14.063413       0.000000
      11      16.297206       0.000000
      12      17.280513       0.000000

 69/72 kpoint (Cartesian) = 0.083333 0.583333 1.083333 (3693 pws)
       1      -4.513168       0.055556
       2      -3.577052       0.055556
       3       0.684363       0.055556
       4       1.338296       0.055556
       5       6.881566       0.000000
       6       8.094488       0.000000
       7       8.744889       0.000000
       8       9.999376       0.000000
       9      12.928479       0.000000
      10      14.804708       0.000000
      11      15.550616       0.000000
      12      17.320536       0.000000

 70/72 kpoint (Cartesian) = 0.000000 0.500000 1.166667 (3700 pws)
       1      -4.704766       0.027778
       2      -3.371441       0.027778
       3       0.580303       0.027778
       4       1.520444       0.027778
       5       7.075719       0.000000
       6       8.295006       0.000000
       7       8.657237       0.000000
       8       9.789256       0.000000
       9      12.510150       0.000000
      10      13.853370       0.000000
      11      16.488059       0.000000
      12      17.575601       0.000000

 71/72 kpoint (Cartesian) = 0.000000 0.666667 1.000000 (3680 pws)
       1      -4.059761       0.013889
       2      -4.058702       0.013889
       3       1.047844       0.013889
       4       1.047941       0.013889
       5       6.682305       0.000000
       6       6.682460       0.000000
       7      10.244836       0.000000
       8      10.244871       0.000000
       9      14.233983       0.000000
      10      14.234142       0.000000
      11      16.154365       0.000000
      12      16.154414       0.000000

 72/72 kpoint (Cartesian) = 0.000000 0.500000 1.000000 (3704 pws)
       1      -4.042400       0.006944
       2      -4.041330       0.006944
       3       0.895557       0.006944
       4       0.895677       0.006944
       5       8.102086       0.000000
       6       8.102518       0.000000
       7       8.603029       0.000000
       8       8.603290       0.000000
       9      14.228434       0.000000
      10      14.228577       0.000000
      11      16.216736       0.000000
      12      16.216789       0.000000



 --------------------------------------------
 !FINAL_ETOT_IS -218.7561825412977896 eV
 --------------------------------------------






  |CLASS_NAME---------|NAME---------------|TIME(Sec)-----|CALLS----|AVG------|PER%-------
                                      total        420.925        17     24.76    100.00%
                 Run_pw     plane_wave_line         420.92         1    420.92    100.00%
               PW_Basis              gen_pw           0.11         1      0.11      0.03%
                Cell_PW        opt_cells_pw         420.73         1    420.73     99.95%
                    FFT               FFT3D         348.27     50646      0.01     82.74%
              Potential            v_of_rho           0.23         6      0.04      0.06%
           H_Hartree_pw           v_hartree           0.12         6      0.02      0.03%
               wavefunc             wfcinit          16.05         1     16.05      3.81%
              Hamilt_PW      diagH_subspace          65.70       360      0.18     15.61%
              Hamilt_PW               h_psi         370.35     19191      0.02     87.98%
              Hamilt_PW                vloc         369.24     19191      0.02     87.72%
                 Hamilt        diagH_LAPACK           0.14       360      0.00      0.03%
                   Ions         opt_ions_pw         404.54         1    404.54     96.11%
              Electrons     self_consistent         404.54         1    404.54     96.11%
               Symmetry        rho_symmetry           0.16         6      0.03      0.04%
              Electrons             c_bands         258.43         3     86.14     61.40%
                 Hamilt            diagH_pw         371.30       360      1.03     88.21%
               Diago_CG                diag         319.94       360      0.89     76.01%
              electrons             c_bands         137.37         3     45.79     32.64%
                 Charge            sum_band          31.57         5      6.31      7.50%
                 Charge             mix_rho           0.31         5      0.06      0.07%
 ----------------------------------------------------------------------------------------

 CLASS_NAME---------|NAME---------------|MEMORY(MB)--------
                                         74.6820
             wavefunc                 evc        48.9243
         Charge_Pulay                Rrho         5.5618
         Charge_Pulay               dRrho         4.8666
         Charge_Pulay                drho         4.8666
              Use_FFT              porter         1.3905
               WF_igk                 igk         1.0193
 ----------------------------------------------------------

 Start  Time  : Fri Sep 10 11:31:50 2021
 Finish Time  : Fri Sep 10 11:38:51 2021
 Total  Time  : 0 h 7 mins 1 secs 
