 *********************************************************
 *                                                       *
 *                  WELCOME TO ABACUS v3.0               *
 *                                                       *
 *            'Atomic-orbital Based Ab-initio            *
 *                  Computation at UStc'                 *
 *                                                       *
 *          Website: http://abacus.ustc.edu.cn/          *
 *                                                       *
 *********************************************************
 Mon Mar  6 13:57:11 2023
 MAKE THE DIR         : OUT.blpstest/
Notice: symbol 'Li_locpsp' is not an element symbol!!!! set the covalent radius to be 0.
Notice: symbol 'al_locpsp' is not an element symbol!!!! set the covalent radius to be 0.
 UNIFORM GRID DIM     : 60 * 60 * 60
 UNIFORM GRID DIM(BIG): 60 * 60 * 60
func,idXC_GGA_X_PBE 101
func,idXC_GGA_C_PBE 130
 DONE(0.349425   SEC) : SETUP UNITCELL
 DONE(0.383526   SEC) : SYMMETRY
 DONE(0.534396   SEC) : INIT K-POINTS
 ---------------------------------------------------------
 Self-consistent calculations for electrons
 ---------------------------------------------------------
 SPIN    KPOINTS         PROCESSORS  
 1       286             1           
 ---------------------------------------------------------
 Use plane wave basis
 ---------------------------------------------------------
 ELEMENT NATOM       XC          
 Li      8           
 Al      8           
 ---------------------------------------------------------
 Initial plane wave basis and FFT box
 ---------------------------------------------------------
 DONE(0.911415   SEC) : INIT PLANEWAVE
 MEMORY FOR PSI (MB)  : 1365.76
 DONE(1.55533    SEC) : LOCAL POTENTIAL
 DONE(1.55536    SEC) : NON-LOCAL POTENTIAL
 DONE(1.55543    SEC) : INIT BASIS
 START CHARGE      : atomic
 DONE(1.9593     SEC) : INIT SCF
 ITER   ETOT(eV)       EDIFF(eV)      DRHO       TIME(s)    
 CG1    -5.220464e+02  0.000000e+00   3.596e+00  3.151e+03  
 CG2    -5.297916e+02  -7.745163e+00  8.832e-02  1.077e+03  
 CG3    -5.304237e+02  -6.320977e-01  9.901e-03  1.210e+03  
 CG4    -5.304600e+02  -3.629332e-02  1.235e-03  6.537e+02  
 CG5    -5.304630e+02  -2.996722e-03  9.534e-05  4.877e+02  
 CG6    -5.304633e+02  -3.046130e-04  1.868e-05  3.612e+02  
 CG7    -5.304633e+02  -3.455897e-05  1.222e-07  2.781e+02  
 CG8    -5.304633e+02  -3.843263e-06  3.014e-08  4.438e+02  
 CG9    -5.304633e+02  -6.520546e-08  3.379e-10  2.332e+02  

  |CLASS_NAME---------|NAME---------------|TIME(Sec)-----|CALLS----|AVG------|PER%-------
                       total               7897.4         17        4.6e+02   1e+02     %
   Driver              driver_line         7897.4         1         7.9e+03   1e+02     %
   PW_Basis            setuptransform      0.31288        1         0.31      0.004     %
   PW_Basis_K          setuptransform      0.25046        1         0.25      0.0032    %
   PW_Basis            setup_struc_factor  0.56406        1         0.56      0.0071    %
   ESolver_KS_PW       Run                 7895.8         1         7.9e+03   1e+02     %
   PW_Basis            recip2real          0.59701        62        0.0096    0.0076    %
   Potential           init_pot            0.29597        1         0.3       0.0037    %
   Potential           update_from_charge  2.7645         10        0.28      0.035     %
   Potential           cal_v_eff           2.7552         10        0.28      0.035     %
   H_Hartree_pw        v_hartree           0.22814        10        0.023     0.0029    %
   PW_Basis            real2recip          0.88684        98        0.009     0.011     %
   PotXC               cal_v_eff           2.5112         10        0.25      0.032     %
   XC_Functional       v_xc                5359.8         5         1.1e+03   68        %
   XC_Functional       v_xc_libxc          2.494          10        0.25      0.032     %
   Symmetry            rho_symmetry        0.10763        10        0.011     0.0014    %
   HSolverPW           solve               7892.3         9         8.8e+02   1e+02     %
   WF_atomic           atomic_wfc          1.5133         286       0.0053    0.019     %
   WF_igk              get_sk              1.3013         4576      0.00028   0.016     %
   DiagoIterAssist     diagH_subspace      1215           2574      0.47      15        %
   OperatorPW          hPsi                6743.7         324556    0.021     85        %
   Operator            EkineticPW          23.763         324556    7.3e-05   0.3       %
   Operator            VeffPW              6710.8         324556    0.021     85        %
   PW_Basis_K          recip2real          3559.3         443139    0.008     45        %
   PW_Basis_K          gathers_scatterp    445.11         443139    0.001     5.6       %
   PW_Basis_K          real2recip          2904.8         399202    0.0073    37        %
   PW_Basis_K          gatherp_scatters    111.63         399202    0.00028   1.4       %
   Operator            NonlocalPW          0.5021         324556    1.5e-06   0.0064    %
   DiagoIterAssist     LAPACK_subspace     1.1383         2574      0.00044   0.014     %
   DiagoCG             diag_once           6314.2         2574      2.5       80        %
   ElecStatePW         psiToRho            344.84         9         38        4.4       %
   Charge              mix_rho             0.25727        8         0.032     0.0033    %
 ----------------------------------------------------------------------------------------

 START  Time  : Mon Mar  6 13:57:11 2023
 FINISH Time  : Mon Mar  6 16:08:48 2023
 TOTAL  Time  : 7.9e+03
 SEE INFORMATION IN : OUT.blpstest/
