 *********************************************************
 *                                                       *
 *                  WELCOME TO ABACUS v3.0               *
 *                                                       *
 *            'Atomic-orbital Based Ab-initio            *
 *                  Computation at UStc'                 *
 *                                                       *
 *          Website: http://abacus.ustc.edu.cn/          *
 *                                                       *
 *********************************************************
 Tue May  2 12:50:28 2023
 MAKE THE DIR         : OUT.blpstest/
Notice: symbol 'mg_locpsp' is not an element symbol!!!! set the covalent radius to be 0.
 UNIFORM GRID DIM     : 30 * 30 * 30
 UNIFORM GRID DIM(BIG): 30 * 30 * 30
func,idXC_GGA_X_PBE 101
func,idXC_GGA_C_PBE 130
 DONE(0.180652   SEC) : SETUP UNITCELL
 DONE(0.241738   SEC) : SYMMETRY
 DONE(0.242514   SEC) : INIT K-POINTS
 ---------------------------------------------------------
 Self-consistent calculations for electrons
 ---------------------------------------------------------
 SPIN    KPOINTS         PROCESSORS  
 1       1               1           
 ---------------------------------------------------------
 Use plane wave basis
 ---------------------------------------------------------
 ELEMENT NATOM       XC          
 Mg      1           
 ---------------------------------------------------------
 Initial plane wave basis and FFT box
 ---------------------------------------------------------
 DONE(0.24441    SEC) : INIT BASIS
 DONE(0.244477   SEC) : INIT PHI
 DONE(0.284239   SEC) : LOCAL POTENTIAL
 DONE(0.284313   SEC) : NON-LOCAL POTENTIAL
 START CHARGE      : atomic
 DONE(0.405627   SEC) : INIT POTENTIAL
 DONE(0.405812   SEC) : INIT OPTIMIZATION
Default type: double
 DONE(0.407909   SEC) : INIT KEDF
======================== Running OFDFT ========================
Iter        Etot(Ha)          Theta      PotNorm     deltaE(Ha)
0     -8.340162661365e-01   2.000e-01   9.193e-02   -8.340e-01  
1     -8.765193109568e-01   1.204e-01   6.280e-02   -4.250e-02  
2     -8.779228583336e-01   1.198e-02   9.211e-03   -1.404e-03  
3     -8.779496258339e-01   1.696e-03   2.186e-03   -2.677e-05  
4     -8.779522511476e-01   8.333e-04   1.811e-04   -2.625e-06  
5     -8.779522823429e-01   8.417e-05   1.565e-04   -3.120e-08  
6     -8.779522942160e-01   5.928e-05   7.191e-05   -1.187e-08  

  |CLASS_NAME---------|NAME---------------|TIME(Sec)-----|CALLS----|AVG------|PER%-------
                       total               9.0315         21        0.43      1e+02     %
   Driver              driver_line         9.0062         1         9         1e+02     %
   PW_Basis            setuptransform      0.14001        1         0.14      1.6       %
   PW_Basis            recip2real          1.7374         1737      0.001     19        %
   PW_Basis            gathers_scatterp    0.18565        1737      0.00011   2.1       %
   Potential           update_from_charge  5.1972         134       0.039     58        %
   Potential           cal_v_eff           5.193          134       0.039     57        %
   H_Hartree_pw        v_hartree           0.42036        134       0.0031    4.7       %
   PW_Basis            real2recip          1.872          1737      0.0011    21        %
   PW_Basis            gatherp_scatters    0.17151        1737      9.9e-05   1.9       %
   PotXC               cal_v_eff           4.7448         134       0.035     53        %
   XC_Functional       v_xc                4.3298         67        0.065     48        %
   XC_Functional       v_xc_libxc          4.6894         134       0.035     52        %
   ESolver_OF          Run                 8.623          1         8.6       95        %
   KEDF_LKT            LKT_potential       2.8916         133       0.022     32        %
   KEDF_vW             vw_potential        0.37903        133       0.0028    4.2       %
 ----------------------------------------------------------------------------------------

 START  Time  : Tue May  2 12:50:28 2023
 FINISH Time  : Tue May  2 12:50:37 2023
 TOTAL  Time  : 9
 SEE INFORMATION IN : OUT.blpstest/
