 *********************************************************
 *                                                       *
 *                  WELCOME TO ABACUS v3.0               *
 *                                                       *
 *            'Atomic-orbital Based Ab-initio            *
 *                  Computation at UStc'                 *
 *                                                       *
 *          Website: http://abacus.ustc.edu.cn/          *
 *                                                       *
 *********************************************************
 Mon Jul 24 15:22:39 2023
 MAKE THE DIR         : OUT.blpstest/
Notice: symbol 'In_locpsp' is not an element symbol!!!! set the covalent radius to be 0.
Notice: symbol 'As_locpsp' is not an element symbol!!!! set the covalent radius to be 0.
 UNIFORM GRID DIM     : 45 * 45 * 45
 UNIFORM GRID DIM(BIG): 45 * 45 * 45
func,idXC_GGA_X_PBE 101
func,idXC_GGA_C_PBE 130
 DONE(0.375569   SEC) : SETUP UNITCELL
 DONE(0.437348   SEC) : SYMMETRY
 DONE(0.744582   SEC) : INIT K-POINTS
 ---------------------------------------------------------
 Self-consistent calculations for electrons
 ---------------------------------------------------------
 SPIN    KPOINTS         PROCESSORS  
 1       256             1           
 ---------------------------------------------------------
 Use plane wave basis
 ---------------------------------------------------------
 ELEMENT NATOM       XC          
 In      1           
 As      1           
 ---------------------------------------------------------
 Initial plane wave basis and FFT box
 ---------------------------------------------------------
 DONE(0.921141   SEC) : INIT PLANEWAVE
 MEMORY FOR PSI (MB)  : 106.594
 DONE(0.990515   SEC) : LOCAL POTENTIAL
 DONE(0.990572   SEC) : NON-LOCAL POTENTIAL
 DONE(0.990681   SEC) : INIT BASIS
 START CHARGE      : atomic
 DONE(1.23312    SEC) : INIT SCF
 ITER   ETOT(eV)       EDIFF(eV)      DRHO       TIME(s)    
 CG1    -2.115671e+02  0.000000e+00   3.728e+00  1.321e+02  
 CG2    -2.231281e+02  -1.156099e+01  5.970e-01  6.598e+01  
 CG3    -2.250883e+02  -1.960218e+00  2.345e-02  5.329e+01  
 CG4    -2.251252e+02  -3.692233e-02  6.901e-04  5.979e+01  
 CG5    -2.251300e+02  -4.771956e-03  4.881e-05  7.160e+01  
 CG6    -2.251302e+02  -1.648351e-04  3.164e-06  6.505e+01  
 CG7    -2.251302e+02  -8.251052e-06  1.755e-08  5.987e+01  
 CG8    -2.251302e+02  -3.776218e-07  1.267e-08  8.230e+01  
 CG9    -2.251302e+02  -1.394174e-08  6.173e-10  3.977e+01  

  |CLASS_NAME---------|NAME---------------|TIME(Sec)-----|CALLS----|AVG------|PER%-------
                       total               631.04         17        37        1e+02     %
   Driver              driver_line         631.03         1         6.3e+02   1e+02     %
   PW_Basis            setuptransform      0.35071        1         0.35      0.056     %
   PW_Basis_K          setuptransform      0.12195        1         0.12      0.019     %
   ESolver_KS_PW       Run                 630.04         1         6.3e+02   1e+02     %
   PW_Basis            recip2real          0.2662         62        0.0043    0.042     %
   Potential           init_pot            0.17255        1         0.17      0.027     %
   Potential           update_from_charge  1.4709         10        0.15      0.23      %
   Potential           cal_v_eff           1.4653         10        0.15      0.23      %
   H_Hartree_pw        v_hartree           0.11111        10        0.011     0.018     %
   PW_Basis            real2recip          0.39289        98        0.004     0.062     %
   PotXC               cal_v_eff           1.3436         10        0.13      0.21      %
   XC_Functional       v_xc                356.7          5         71        57        %
   XC_Functional       v_xc_libxc          1.3318         10        0.13      0.21      %
   HSolverPW           solve               628.14         9         70        1e+02     %
   DiagoIterAssist     diagH_subspace      120.82         2304      0.052     19        %
   OperatorPW          hPsi                565.59         78080     0.0072    90        %
   Operator            EkineticPW          2.1846         78080     2.8e-05   0.35      %
   Operator            VeffPW              562.38         78080     0.0072    89        %
   PW_Basis_K          recip2real          278.97         105729    0.0026    44        %
   PW_Basis_K          gathers_scatterp    38.912         105729    0.00037   6.2       %
   PW_Basis_K          real2recip          224.14         96512     0.0023    36        %
   PW_Basis_K          gatherp_scatters    10.822         96512     0.00011   1.7       %
   Operator            NonlocalPW          0.16249        78080     2.1e-06   0.026     %
   DiagoIterAssist     LAPACK_subspace     0.39304        2304      0.00017   0.062     %
   DiagoCG             diag_once           472.46         2304      0.21      75        %
   ElecStatePW         psiToRho            33.208         9         3.7       5.3       %
   Charge              mix_rho             0.18114        8         0.023     0.029     %
 ----------------------------------------------------------------------------------------

 START  Time  : Mon Jul 24 15:22:39 2023
 FINISH Time  : Mon Jul 24 15:33:11 2023
 TOTAL  Time  : 6.3e+02
 SEE INFORMATION IN : OUT.blpstest/
