 *********************************************************
 *                                                       *
 *                  WELCOME TO ABACUS v3.0               *
 *                                                       *
 *            'Atomic-orbital Based Ab-initio            *
 *                  Computation at UStc'                 *
 *                                                       *
 *          Website: http://abacus.ustc.edu.cn/          *
 *                                                       *
 *********************************************************
 Wed Dec 28 12:03:40 2022
 MAKE THE DIR         : OUT.blpstest/
Notice: symbol 'al_locpsp' is not an element symbol!!!! set the covalent radius to be 0.
 UNIFORM GRID DIM     : 30 * 30 * 30
 UNIFORM GRID DIM(BIG): 30 * 30 * 30
func,idXC_GGA_X_PBE 101
func,idXC_GGA_C_PBE 130
 DONE(0.130471   SEC) : SETUP UNITCELL
 DONE(0.182441   SEC) : SYMMETRY
 DONE(0.535323   SEC) : INIT K-POINTS
 ---------------------------------------------------------
 Self-consistent calculations for electrons
 ---------------------------------------------------------
 SPIN    KPOINTS         PROCESSORS  
 1       256             1           
 ---------------------------------------------------------
 Use plane wave basis
 ---------------------------------------------------------
 ELEMENT NATOM       XC          
 Al      1           
 ---------------------------------------------------------
 Initial plane wave basis and FFT box
 ---------------------------------------------------------
 DONE(0.614155   SEC) : INIT PLANEWAVE
 MEMORY FOR PSI (MB)  : 61.875
 DONE(0.629357   SEC) : LOCAL POTENTIAL
 DONE(0.629407   SEC) : NON-LOCAL POTENTIAL
 DONE(0.629495   SEC) : INIT BASIS
 START CHARGE      : atomic
 DONE(0.685266   SEC) : INIT SCF
 ITER   ETOT(eV)       EDIFF(eV)      DRHO       TIME(s)    
 CG1    -5.681251e+01  0.000000e+00   6.982e-02  6.317e+01  
 CG2    -5.709236e+01  -2.798540e-01  5.798e-03  2.157e+01  
 CG3    -5.709855e+01  -6.183350e-03  3.703e-05  2.685e+01  
 CG4    -5.709884e+01  -2.885939e-04  4.774e-07  3.670e+01  
 CG5    -5.709884e+01  -6.596617e-06  9.177e-09  2.535e+01  
 CG6    -5.709884e+01  -7.835389e-08  1.445e-09  1.650e+01  
 CG7    -5.709884e+01  -4.044128e-10  5.752e-11  1.089e+01  

  |CLASS_NAME---------|NAME---------------|TIME(Sec)-----|CALLS----|AVG------|PER%-------
                       total               201.75         17        12        1e+02     %
   Driver              driver_line         201.74         1         2e+02     1e+02     %
   PW_Basis            setuptransform      0.11196        1         0.11      0.055     %
   ESolver_KS_PW       Run                 201.11         1         2e+02     1e+02     %
   Potential           update_from_charge  0.2428         8         0.03      0.12      %
   Potential           cal_v_eff           0.24155        8         0.03      0.12      %
   PotXC               cal_v_eff           0.22286        8         0.028     0.11      %
   XC_Functional       v_xc                126.28         4         32        63        %
   XC_Functional       v_xc_libxc          0.22233        8         0.028     0.11      %
   HSolverPW           solve               200.78         7         29        1e+02     %
   DiagoIterAssist     diagH_subspace      37.74          1792      0.021     19        %
   OperatorPW          hPsi                187.54         106326    0.0018    93        %
   Operator            EkineticPW          0.52752        106326    5e-06     0.26      %
   Operator            VeffPW              186.5          106326    0.0018    92        %
   PW_Basis_K          recip2real          94.699         134255    0.00071   47        %
   PW_Basis_K          gathers_scatterp    6.8462         134255    5.1e-05   3.4       %
   PW_Basis_K          real2recip          84.722         131414    0.00064   42        %
   PW_Basis_K          gatherp_scatters    1.6518         131414    1.3e-05   0.82      %
   DiagoIterAssist     LAPACK_subspace     0.2911         1792      0.00016   0.14      %
   DiagoCG             diag_once           159.35         1792      0.089     79        %
   ElecStatePW         psiToRho            2.0118         7         0.29      1         %
 ----------------------------------------------------------------------------------------

 START  Time  : Wed Dec 28 12:03:40 2022
 FINISH Time  : Wed Dec 28 12:07:02 2022
 TOTAL  Time  : 2e+02
 SEE INFORMATION IN : OUT.blpstest/
