 *********************************************************
 *                                                       *
 *                  WELCOME TO ABACUS v3.0               *
 *                                                       *
 *            'Atomic-orbital Based Ab-initio            *
 *                  Computation at UStc'                 *
 *                                                       *
 *          Website: http://abacus.ustc.edu.cn/          *
 *                                                       *
 *********************************************************
 Tue May  2 12:50:59 2023
 MAKE THE DIR         : OUT.blpstest/
Notice: symbol 'mg_locpsp' is not an element symbol!!!! set the covalent radius to be 0.
 UNIFORM GRID DIM     : 30 * 30 * 30
 UNIFORM GRID DIM(BIG): 30 * 30 * 30
func,idXC_GGA_X_PBE 101
func,idXC_GGA_C_PBE 130
 DONE(0.149494   SEC) : SETUP UNITCELL
 DONE(0.203954   SEC) : SYMMETRY
 DONE(0.204161   SEC) : INIT K-POINTS
 ---------------------------------------------------------
 Self-consistent calculations for electrons
 ---------------------------------------------------------
 SPIN    KPOINTS         PROCESSORS  
 1       1               1           
 ---------------------------------------------------------
 Use plane wave basis
 ---------------------------------------------------------
 ELEMENT NATOM       XC          
 Mg      1           
 ---------------------------------------------------------
 Initial plane wave basis and FFT box
 ---------------------------------------------------------
 DONE(0.20562    SEC) : INIT BASIS
 DONE(0.205648   SEC) : INIT PHI
 DONE(0.261538   SEC) : LOCAL POTENTIAL
 DONE(0.261568   SEC) : NON-LOCAL POTENTIAL
 START CHARGE      : atomic
 DONE(0.365015   SEC) : INIT POTENTIAL
 DONE(0.365137   SEC) : INIT OPTIMIZATION
Default type: double
 DONE(0.367016   SEC) : INIT KEDF
======================== Running OFDFT ========================
Iter        Etot(Ha)          Theta      PotNorm     deltaE(Ha)
0     -8.491751258698e-01   2.000e-01   1.027e-01   -8.492e-01  
1     -8.511294338542e-01   2.122e-02   1.214e-01   -1.954e-03  
2     -8.874936631432e-01   8.453e-02   8.890e-02   -3.636e-02  
3     -8.905287883691e-01   1.611e-02   1.810e-02   -3.035e-03  
4     -8.906209631617e-01   3.384e-03   9.259e-03   -9.217e-05  
5     -8.906497288462e-01   2.773e-03   1.117e-03   -2.877e-05  
6     -8.906500548705e-01   1.873e-04   6.826e-04   -3.260e-07  
7     -8.906502136238e-01   1.617e-04   3.735e-04   -1.588e-07  

  |CLASS_NAME---------|NAME---------------|TIME(Sec)-----|CALLS----|AVG------|PER%-------
                       total               26.581         21        1.3       1e+02     %
   Driver              driver_line         26.569         1         27        1e+02     %
   PW_Basis            setuptransform      0.12724        1         0.13      0.48      %
   PW_Basis            recip2real          5.5981         2296      0.0024    21        %
   PW_Basis            gathers_scatterp    0.92821        2296      0.0004    3.5       %
   Potential           update_from_charge  16.088         177       0.091     61        %
   Potential           cal_v_eff           16.085         177       0.091     61        %
   H_Hartree_pw        v_hartree           1.4569         177       0.0082    5.5       %
   PW_Basis            real2recip          6.4694         2296      0.0028    24        %
   PW_Basis            gatherp_scatters    0.75972        2296      0.00033   2.9       %
   PotXC               cal_v_eff           14.519         177       0.082     55        %
   XC_Functional       v_xc                13.207         89        0.15      50        %
   XC_Functional       v_xc_libxc          14.291         177       0.081     54        %
   ESolver_OF          Run                 26.209         1         26        99        %
   KEDF_LKT            LKT_potential       8.113          176       0.046     31        %
   KEDF_vW             vw_potential        1.2736         176       0.0072    4.8       %
 ----------------------------------------------------------------------------------------

 START  Time  : Tue May  2 12:50:59 2023
 FINISH Time  : Tue May  2 12:51:25 2023
 TOTAL  Time  : 26
 SEE INFORMATION IN : OUT.blpstest/
