 *********************************************************
 *                                                       *
 *                  WELCOME TO ABACUS v3.0               *
 *                                                       *
 *            'Atomic-orbital Based Ab-initio            *
 *                  Computation at UStc'                 *
 *                                                       *
 *          Website: http://abacus.ustc.edu.cn/          *
 *                                                       *
 *********************************************************
 Mon Jul 24 14:09:11 2023
 MAKE THE DIR         : OUT.blpstest/
Notice: symbol 'al_locpsp' is not an element symbol!!!! set the covalent radius to be 0.
Notice: symbol 'Sb_locpsp' is not an element symbol!!!! set the covalent radius to be 0.
 UNIFORM GRID DIM     : 45 * 45 * 45
 UNIFORM GRID DIM(BIG): 45 * 45 * 45
func,idXC_GGA_X_PBE 101
func,idXC_GGA_C_PBE 130
 DONE(0.202328   SEC) : SETUP UNITCELL
 DONE(0.2336     SEC) : SYMMETRY
 DONE(0.398135   SEC) : INIT K-POINTS
 ---------------------------------------------------------
 Self-consistent calculations for electrons
 ---------------------------------------------------------
 SPIN    KPOINTS         PROCESSORS  
 1       256             1           
 ---------------------------------------------------------
 Use plane wave basis
 ---------------------------------------------------------
 ELEMENT NATOM       XC          
 Al      1           
 Sb      1           
 ---------------------------------------------------------
 Initial plane wave basis and FFT box
 ---------------------------------------------------------
 DONE(0.523383   SEC) : INIT PLANEWAVE
 MEMORY FOR PSI (MB)  : 110.32
 DONE(0.575194   SEC) : LOCAL POTENTIAL
 DONE(0.575242   SEC) : NON-LOCAL POTENTIAL
 DONE(0.575313   SEC) : INIT BASIS
 START CHARGE      : atomic
 DONE(0.709216   SEC) : INIT SCF
 ITER   ETOT(eV)       EDIFF(eV)      DRHO       TIME(s)    
 CG1    -2.024054e+02  0.000000e+00   1.433e+00  8.400e+01  
 CG2    -2.053714e+02  -2.966042e+00  9.751e-02  5.121e+01  
 CG3    -2.056904e+02  -3.189727e-01  1.696e-02  1.565e+02  
 CG4    -2.057348e+02  -4.441740e-02  7.331e-05  2.474e+02  
 CG5    -2.057367e+02  -1.921222e-03  4.408e-05  3.990e+02  
 CG6    -2.057368e+02  -1.312348e-04  1.716e-06  2.151e+02  
 CG7    -2.057368e+02  -6.189702e-06  5.000e-09  1.909e+02  
 CG8    -2.057368e+02  -5.281469e-08  9.556e-10  1.295e+02  

  |CLASS_NAME---------|NAME---------------|TIME(Sec)-----|CALLS----|AVG------|PER%-------
                       total               1474.4         17        87        1e+02     %
   Driver              driver_line         1474.4         1         1.5e+03   1e+02     %
   PW_Basis            setuptransform      0.18031        1         0.18      0.012     %
   ESolver_KS_PW       Run                 1473.8         1         1.5e+03   1e+02     %
   PW_Basis            recip2real          0.46919        56        0.0084    0.032     %
   Potential           update_from_charge  2.4055         9         0.27      0.16      %
   Potential           cal_v_eff           2.4024         9         0.27      0.16      %
   H_Hartree_pw        v_hartree           0.1965         9         0.022     0.013     %
   PW_Basis            real2recip          0.81414        88        0.0093    0.055     %
   PotXC               cal_v_eff           2.1913         9         0.24      0.15      %
   XC_Functional       v_xc                830.37         5         1.7e+02   56        %
   XC_Functional       v_xc_libxc          2.1707         9         0.24      0.15      %
   Symmetry            rho_symmetry        0.16658        9         0.019     0.011     %
   HSolverPW           solve               1470.5         8         1.8e+02   1e+02     %
   DiagoIterAssist     diagH_subspace      293.22         2048      0.14      20        %
   OperatorPW          hPsi                1348.5         77319     0.017     91        %
   Operator            EkineticPW          3.987          77319     5.2e-05   0.27      %
   Operator            VeffPW              1342.9         77319     0.017     91        %
   PW_Basis_K          recip2real          687.73         101895    0.0067    47        %
   PW_Basis_K          gathers_scatterp    85.121         101895    0.00084   5.8       %
   PW_Basis_K          real2recip          587.77         93703     0.0063    40        %
   PW_Basis_K          gatherp_scatters    23.527         93703     0.00025   1.6       %
   Operator            NonlocalPW          0.19165        77319     2.5e-06   0.013     %
   DiagoIterAssist     LAPACK_subspace     0.55303        2048      0.00027   0.038     %
   DiagoCG             diag_once           1101.7         2048      0.54      75        %
   ElecStatePW         psiToRho            73.971         8         9.2       5         %
   Charge              mix_rho             0.33838        7         0.048     0.023     %
 ----------------------------------------------------------------------------------------

 START  Time  : Mon Jul 24 14:09:11 2023
 FINISH Time  : Mon Jul 24 14:33:45 2023
 TOTAL  Time  : 1.5e+03
 SEE INFORMATION IN : OUT.blpstest/
