 *********************************************************
 *                                                       *
 *                  WELCOME TO ABACUS v3.0               *
 *                                                       *
 *            'Atomic-orbital Based Ab-initio            *
 *                  Computation at UStc'                 *
 *                                                       *
 *          Website: http://abacus.ustc.edu.cn/          *
 *                                                       *
 *********************************************************
 Wed Apr 26 00:06:32 2023
 MAKE THE DIR         : OUT.oftest/
Notice: symbol 'al_locpsp' is not an element symbol!!!! set the covalent radius to be 0.
 UNIFORM GRID DIM     : 27 * 27 * 27
 UNIFORM GRID DIM(BIG): 27 * 27 * 27
func,idXC_GGA_X_PBE 101
func,idXC_GGA_C_PBE 130
 DONE(0.117708   SEC) : SETUP UNITCELL
 DONE(0.173236   SEC) : SYMMETRY
 DONE(0.173448   SEC) : INIT K-POINTS
 ---------------------------------------------------------
 Self-consistent calculations for electrons
 ---------------------------------------------------------
 SPIN    KPOINTS         PROCESSORS  
 1       1               1           
 ---------------------------------------------------------
 Use plane wave basis
 ---------------------------------------------------------
 ELEMENT NATOM       XC          
 Al      1           
 ---------------------------------------------------------
 Initial plane wave basis and FFT box
 ---------------------------------------------------------
 DONE(0.174576   SEC) : INIT BASIS
 DONE(0.174601   SEC) : INIT PHI
 DONE(0.213656   SEC) : LOCAL POTENTIAL
 DONE(0.213693   SEC) : NON-LOCAL POTENTIAL
 START CHARGE      : atomic
 DONE(0.284924   SEC) : INIT POTENTIAL
 DONE(0.285004   SEC) : INIT OPTIMIZATION
Default type: double
nnode = 10
nlayer = 3
feg_net_F = 0.540933
 DONE(0.338161   SEC) : INIT KEDF
======================== Running OFDFT ========================
Iter        Etot(Ha)          Theta      PotNorm     deltaE(Ha)
0     -2.012543562028e+00   2.000e-01   2.243e-01   -2.013e+00  
1     -2.092050440566e+00   1.055e-01   1.911e-01   -7.951e-02  
2     -2.100107894935e+00   2.355e-02   2.620e-02   -8.057e-03  
3     -2.100263622823e+00   4.662e-03   1.526e-02   -1.557e-04  
4     -2.100304846459e+00   2.210e-03   4.124e-03   -4.122e-05  
5     -2.100307713567e+00   3.601e-04   2.007e-03   -2.867e-06  
6     -2.100309232708e+00   6.274e-04   1.721e-04   -1.519e-06  
7     -2.100309239426e+00   3.037e-05   1.113e-05   -6.718e-09  
8     -2.100309239470e+00   1.936e-06   3.812e-06   -4.405e-11  

  |CLASS_NAME---------|NAME---------------|TIME(Sec)-----|CALLS----|AVG------|PER%-------
                       total               178.15         21        8.5       1e+02     %
   Driver              driver_line         178.14         1         1.8e+02   1e+02     %
   PW_Basis            recip2real          3.9425         4168      0.00095   2.2       %
   PW_Basis            gathers_scatterp    0.27573        4168      6.6e-05   0.15      %
   Potential           update_from_charge  5.5881         209       0.027     3.1       %
   Potential           cal_v_eff           5.5862         209       0.027     3.1       %
   H_Hartree_pw        v_hartree           0.46225        209       0.0022    0.26      %
   PW_Basis            real2recip          4.0379         4168      0.00097   2.3       %
   PW_Basis            gatherp_scatters    0.16651        4168      4e-05     0.093     %
   PotXC               cal_v_eff           5.1074         209       0.024     2.9       %
   XC_Functional       v_xc                88.124         105       0.84      49        %
   XC_Functional       v_xc_libxc          5.0977         209       0.024     2.9       %
   ESolver_OF          Run                 177.81         1         1.8e+02   1e+02     %
   KEDF_vW             vw_potential        0.45443        208       0.0022    0.26      %
 ----------------------------------------------------------------------------------------

 START  Time  : Wed Apr 26 00:06:32 2023
 FINISH Time  : Wed Apr 26 00:09:30 2023
 TOTAL  Time  : 1.8e+02
 SEE INFORMATION IN : OUT.oftest/
