 *********************************************************
 *                                                       *
 *                  WELCOME TO ABACUS v3.0               *
 *                                                       *
 *            'Atomic-orbital Based Ab-initio            *
 *                  Computation at UStc'                 *
 *                                                       *
 *          Website: http://abacus.ustc.edu.cn/          *
 *                                                       *
 *********************************************************
 Mon Apr 17 14:43:03 2023
 MAKE THE DIR         : OUT.blpstest/
Notice: symbol 'al_locpsp' is not an element symbol!!!! set the covalent radius to be 0.
 UNIFORM GRID DIM     : 24 * 24 * 24
 UNIFORM GRID DIM(BIG): 24 * 24 * 24
func,idXC_GGA_X_PBE 101
func,idXC_GGA_C_PBE 130
 DONE(0.240355   SEC) : SETUP UNITCELL
 DONE(0.300606   SEC) : SYMMETRY
 DONE(0.666821   SEC) : INIT K-POINTS
 ---------------------------------------------------------
 Self-consistent calculations for electrons
 ---------------------------------------------------------
 SPIN    KPOINTS         PROCESSORS  
 1       286             1           
 ---------------------------------------------------------
 Use plane wave basis
 ---------------------------------------------------------
 ELEMENT NATOM       XC          
 Al      1           
 ---------------------------------------------------------
 Initial plane wave basis and FFT box
 ---------------------------------------------------------
 DONE(0.667727   SEC) : INIT BASIS
 DONE(0.66776    SEC) : INIT PHI
 DONE(0.691865   SEC) : LOCAL POTENTIAL
 DONE(0.69192    SEC) : NON-LOCAL POTENTIAL
 START CHARGE      : atomic
 DONE(0.740374   SEC) : INIT POTENTIAL
 DONE(0.74043    SEC) : INIT OPTIMIZATION
 DONE(0.741126   SEC) : INIT KEDF
======================== Running OFDFT ========================
Iter        Etot(Ha)          Theta      PotNorm     deltaE(Ha)
0     -1.964041363572e+00   2.000e-01   2.306e-01   -1.964e+00  
1     -1.972188996039e+00   3.808e-02   2.792e-01   -8.148e-03  
2     -2.072412039700e+00   9.887e-02   1.669e-01   -1.002e-01  
3     -2.080122001017e+00   3.335e-02   4.473e-02   -7.710e-03  
4     -2.080564210272e+00   5.876e-03   1.473e-02   -4.422e-04  
5     -2.080660683102e+00   4.901e-03   1.238e-03   -9.647e-05  
6     -2.080660940516e+00   1.238e-04   1.096e-04   -2.574e-07  
7     -2.080660944094e+00   2.129e-05   2.631e-05   -3.579e-09  

  |CLASS_NAME---------|NAME---------------|TIME(Sec)-----|CALLS----|AVG------|PER%-------
                       total               7.5257         21        0.36      1e+02     %
   Driver              driver_line         7.4894         1         7.5       1e+02     %
   PW_Basis            setuptransform      0.19541        1         0.2       2.6       %
   PW_Basis            recip2real          1.0196         1385      0.00074   14        %
   Potential           update_from_charge  3.9297         154       0.026     52        %
   Potential           cal_v_eff           3.9284         154       0.026     52        %
   H_Hartree_pw        v_hartree           0.30761        154       0.002     4.1       %
   PW_Basis            real2recip          1.4235         1691      0.00084   19        %
   PotXC               cal_v_eff           3.5904         154       0.023     48        %
   XC_Functional       v_xc                3.4502         77        0.045     46        %
   XC_Functional       v_xc_libxc          3.5812         154       0.023     48        %
   ESolver_OF          Run                 6.7841         1         6.8       90        %
   KEDF_TF             tf_potential        0.52766        153       0.0034    7         %
   KEDF_WT             wt_potential        1.9186         153       0.013     25        %
   KEDF_vW             vw_potential        0.27418        153       0.0018    3.6       %
 ----------------------------------------------------------------------------------------

 START  Time  : Mon Apr 17 14:43:03 2023
 FINISH Time  : Mon Apr 17 14:43:10 2023
 TOTAL  Time  : 7
 SEE INFORMATION IN : OUT.blpstest/
