 *********************************************************
 *                                                       *
 *                  WELCOME TO ABACUS v3.0               *
 *                                                       *
 *            'Atomic-orbital Based Ab-initio            *
 *                  Computation at UStc'                 *
 *                                                       *
 *          Website: http://abacus.ustc.edu.cn/          *
 *                                                       *
 *********************************************************
 Mon Mar  6 13:47:53 2023
 MAKE THE DIR         : OUT.blpstest/
Notice: symbol 'Li_locpsp' is not an element symbol!!!! set the covalent radius to be 0.
Notice: symbol 'al_locpsp' is not an element symbol!!!! set the covalent radius to be 0.
 UNIFORM GRID DIM     : 32 * 32 * 32
 UNIFORM GRID DIM(BIG): 32 * 32 * 32
func,idXC_GGA_X_PBE 101
func,idXC_GGA_C_PBE 130
 DONE(0.133111   SEC) : SETUP UNITCELL
 DONE(0.164537   SEC) : SYMMETRY
 DONE(0.327822   SEC) : INIT K-POINTS
 ---------------------------------------------------------
 Self-consistent calculations for electrons
 ---------------------------------------------------------
 SPIN    KPOINTS         PROCESSORS  
 1       286             1           
 ---------------------------------------------------------
 Use plane wave basis
 ---------------------------------------------------------
 ELEMENT NATOM       XC          
 Li      1           
 Al      3           
 ---------------------------------------------------------
 Initial plane wave basis and FFT box
 ---------------------------------------------------------
 DONE(0.418607   SEC) : INIT PLANEWAVE
 MEMORY FOR PSI (MB)  : 72.8965
 DONE(0.462481   SEC) : LOCAL POTENTIAL
 DONE(0.462511   SEC) : NON-LOCAL POTENTIAL
 DONE(0.462561   SEC) : INIT BASIS
 START CHARGE      : atomic
 DONE(0.513238   SEC) : INIT SCF
 ITER   ETOT(eV)       EDIFF(eV)      DRHO       TIME(s)    
 CG1    -1.783733e+02  0.000000e+00   7.065e-01  2.021e+01  
 CG2    -1.803033e+02  -1.930039e+00  5.183e-02  7.459e+00  
 CG3    -1.804637e+02  -1.604338e-01  5.137e-03  8.880e+00  
 CG4    -1.804772e+02  -1.340449e-02  1.292e-05  9.093e+00  
 CG5    -1.804777e+02  -5.106219e-04  6.317e-06  1.343e+01  
 CG6    -1.804777e+02  -1.787734e-05  1.830e-07  8.392e+00  
 CG7    -1.804777e+02  -7.823532e-07  3.603e-08  9.825e+00  
 CG8    -1.804777e+02  -3.317574e-08  2.704e-09  7.354e+00  
 CG9    -1.804777e+02  -9.222873e-09  5.584e-12  9.790e+00  

  |CLASS_NAME---------|NAME---------------|TIME(Sec)-----|CALLS----|AVG------|PER%-------
                       total               94.966         17        5.6       1e+02     %
   Driver              driver_line         94.955         1         95        1e+02     %
   PW_Basis            setuptransform      0.11141        1         0.11      0.12      %
   ESolver_KS_PW       Run                 94.492         1         94        1e+02     %
   Potential           update_from_charge  0.2186         10        0.022     0.23      %
   Potential           cal_v_eff           0.21796        10        0.022     0.23      %
   PotXC               cal_v_eff           0.205          10        0.021     0.22      %
   XC_Functional       v_xc                62.137         5         12        65        %
   XC_Functional       v_xc_libxc          0.20262        10        0.02      0.21      %
   HSolverPW           solve               94.19          9         10        99        %
   DiagoIterAssist     diagH_subspace      15.871         2574      0.0062    17        %
   OperatorPW          hPsi                81.788         92660     0.00088   86        %
   Operator            EkineticPW          0.44085        92660     4.8e-06   0.46      %
   Operator            VeffPW              81.089         92660     0.00088   85        %
   PW_Basis_K          recip2real          44.742         126960    0.00035   47        %
   PW_Basis_K          gathers_scatterp    5.2519         126960    4.1e-05   5.5       %
   PW_Basis_K          real2recip          36.256         113252    0.00032   38        %
   PW_Basis_K          gatherp_scatters    1.3941         113252    1.2e-05   1.5       %
   DiagoIterAssist     LAPACK_subspace     0.12166        2574      4.7e-05   0.13      %
   DiagoCG             diag_once           72.413         2574      0.028     76        %
   ElecStatePW         psiToRho            5.0547         9         0.56      5.3       %
 ----------------------------------------------------------------------------------------

 START  Time  : Mon Mar  6 13:47:53 2023
 FINISH Time  : Mon Mar  6 13:49:28 2023
 TOTAL  Time  : 95
 SEE INFORMATION IN : OUT.blpstest/
