                                                                                     
                             WELCOME TO ABACUS                                       
                                                                                     
               'Atomic-orbital Based Ab-initio Computation at UStc'                  
                                                                                     
                     Website: http://abacus.ustc.edu.cn/                             
                                                                                     
    Version: Parallel, in development
    Processor Number is 1
    Start Time is Fri Sep 10 11:31:50 2021
                                                                                     
 ------------------------------------------------------------------------------------

 READING GENERAL INFORMATION
                           global_out_dir = OUT.blpstest/
                           global_in_card = INPUT
                               pseudo_dir = ./
                              orbital_dir = ./
                              pseudo_type = blps
                                    DRANK = 1
                                    DSIZE = 1
                                   DCOLOR = 1
                                    GRANK = 1
                                    GSIZE = 1




 >>>>>>>>>>>>>>>>>>>>>>>>>>>>>>>>>>>>>>>>>>>>>>>>>>>>>>>>>>>>>>>>>>>>>>
 |                                                                    |
 | Reading atom information in unitcell:                              |
 | From the input file and the structure file we know the number of   |
 | different elments in this unitcell, then we list the detail        |
 | information for each element, especially the zeta and polar atomic |
 | orbital number for each element. The total atom number is counted. |
 | We calculate the nearest atom distance for each atom and show the  |
 | Cartesian and Direct coordinates for each atom. We list the file   |
 | address for atomic orbitals. The volume and the lattice vectors    |
 | in real and reciprocal space is also shown.                        |
 |                                                                    |
 <<<<<<<<<<<<<<<<<<<<<<<<<<<<<<<<<<<<<<<<<<<<<<<<<<<<<<<<<<<<<<<<<<<<<<




 READING UNITCELL INFORMATION
                                    ntype = 1
                 atom label for species 1 = Si
                  lattice constant (Bohr) = 10.8339
              lattice constant (Angstrom) = 5.73305

 READING ATOM TYPE 1
                               atom label = Si
                      L=0, number of zeta = 1
                      L=1, number of zeta = 1
                      L=2, number of zeta = 1
             number of atom for this type = 2
                      start magnetization = FALSE
                      start magnetization = FALSE

                        TOTAL ATOM NUMBER = 2

 DIRECT COORDINATES
         atom                   x                   y                   z                 mag                  vx                  vy                  vz
     taud_Si1                   0                   0                   0                   0                   0                   0                   0
     taud_Si2                0.25                0.25                0.25                   0                   0                   0                   0


                          Volume (Bohr^3) = 317.903
                             Volume (A^3) = 47.1083

 Lattice vectors: (Cartesian coordinate: in unit of a_0)
                   +0                +0.5                +0.5
                 +0.5                  +0                +0.5
                 +0.5                +0.5                  +0
 Reciprocal vectors: (Cartesian coordinate: in unit of 2 pi/a_0)
                   -1                  +1                  +1
                   +1                  -1                  +1
                   +1                  +1                  -1




 >>>>>>>>>>>>>>>>>>>>>>>>>>>>>>>>>>>>>>>>>>>>>>>>>>>>>>>>>>>>>>>>>>>>>>
 |                                                                    |
 | Reading pseudopotentials files:                                    |
 | The pseudopotential file is in UPF format. The 'NC' indicates that |
 | the type of pseudopotential is 'norm conserving'. Functional of    |
 | exchange and correlation is decided by 4 given parameters in UPF   |
 | file.  We also read in the 'core correction' if there exists.      |
 | Also we can read the valence electrons number and the maximal      |
 | angular momentum used in this pseudopotential. We also read in the |
 | trail wave function, trail atomic density and local-pseudopotential|
 | on logrithmic grid. The non-local pseudopotential projector is also|
 | read in if there is any.                                           |
 |                                                                    |
 <<<<<<<<<<<<<<<<<<<<<<<<<<<<<<<<<<<<<<<<<<<<<<<<<<<<<<<<<<<<<<<<<<<<<<




                PAO radial cut off (Bohr) = 16

 Read in pseudopotential file is si.lda.lps
                     pseudopotential type = 
                            functional Ex = LDA
                            functional Ec = LDA
                          functional GCEx = NOGX
                          functional GCEc = NOGC
                 nonlocal core correction = 0
                        valence electrons = 4
                                     lmax = 0
                           number of zeta = 0
                     number of projectors = 0
     initial pseudo atomic orbital number = 0
                                   NLOCAL = 18

 SETUP THE ELECTRONS NUMBER
            electron number of element Si = 4
      total electron number of element Si = 8
                           occupied bands = 4
                                   NBANDS = 12
 DONE : SETUP UNITCELL Time : 0.0142529 (SEC)





 >>>>>>>>>>>>>>>>>>>>>>>>>>>>>>>>>>>>>>>>>>>>>>>>>>>>>>>>>>>>>>>>>>>>>>
 |                                                                    |
 | Doing symmetry analysis:                                           |
 | We calculate the norm of 3 vectors and the angles between them,    |
 | the type of Bravais lattice is given. We can judge if the unticell |
 | is a primitive cell. Finally we give the point group operation for |
 | this unitcell. We we use the point group operations to do symmetry |
 | analysis on given k-point mesh and the charge density.             |
 |                                                                    |
 <<<<<<<<<<<<<<<<<<<<<<<<<<<<<<<<<<<<<<<<<<<<<<<<<<<<<<<<<<<<<<<<<<<<<<




 LATTICE VECTORS: (CARTESIAN COORDINATE: IN UNIT OF A0)
                   +0                +0.5                +0.5
                 +0.5                  +0                +0.5
                 +0.5                +0.5                  +0
                       right hand lattice = 1
                                   NORM_A = 0.707107
                                   NORM_B = 0.707107
                                   NORM_C = 0.707107
                           ALPHA (DEGREE) = 60
                           BETA  (DEGREE) = 60
                           GAMMA (DEGREE) = 60
                             BRAVAIS TYPE = 3
                     BRAVAIS LATTICE NAME = 03. Cubic F (face-centered)
 STANDARD LATTICE VECTORS: (CARTESIAN COORDINATE: IN UNIT OF A0)
                   +0                +0.5                +0.5
                 +0.5                  +0                +0.5
                 +0.5                +0.5                  +0
                                    IBRAV = 3
                                  BRAVAIS = FACE CENTERED CUBIC
                       LATTICE CONSTANT A = 4.12311
                                    ibrav = 3
                        ROTATION MATRICES = 48
              PURE POINT GROUP OPERATIONS = 24
                   SPACE GROUP OPERATIONS = 48
                                       C2 = 3
                                       C3 = 8
                                       C4 = 0
                                       C6 = 0
                                       S1 = 6
                                       S3 = 0
                                       S4 = 6
                                       S6 = 0
                              POINT GROUP = T_d
 DONE : SYMMETRY Time : 0.0714989 (SEC)





 >>>>>>>>>>>>>>>>>>>>>>>>>>>>>>>>>>>>>>>>>>>>>>>>>>>>>>>>>>>>>>>>>>>>>>
 |                                                                    |
 | Setup K-points                                                     |
 | We setup the k-points according to input parameters.               |
 | The reduced k-points are set according to symmetry operations.     |
 | We treat the spin as another set of k-points.                      |
 |                                                                    |
 <<<<<<<<<<<<<<<<<<<<<<<<<<<<<<<<<<<<<<<<<<<<<<<<<<<<<<<<<<<<<<<<<<<<<<





 SETUP K-POINTS
                                    nspin = 1
                   Input type of k points = Monkhorst-Pack(Gamma)
                                   nkstot = 1728
                               nkstot_ibz = 72
      IBZ             DirectX             DirectY             DirectZ              Weight    ibz2bz
        1                   0                   0                   0         0.000578704         0
        2            0.916667            0.916667            0.916667          0.00462963         1
        3            0.833333            0.833333            0.833333          0.00462963         2
        4                0.75                0.75                0.75          0.00462963         3
        5            0.666667            0.666667            0.666667          0.00462963         4
        6            0.583333            0.583333            0.583333          0.00462963         5
        7                 0.5                 0.5                 0.5          0.00231481         6
        8                   0            0.916667            0.916667          0.00347222        13
        9            0.916667            0.833333            0.833333           0.0138889        14
       10            0.833333                0.75                0.75           0.0138889        15
       11            0.916667            0.916667                0.25           0.0138889        16
       12            0.916667            0.916667            0.333333           0.0138889        17
       13            0.916667            0.916667            0.416667           0.0138889        18
       14            0.916667            0.916667                 0.5           0.0138889        19
       15            0.916667            0.916667            0.583333           0.0138889        20
       16            0.916667            0.916667            0.666667           0.0138889        21
       17            0.916667            0.916667                0.75           0.0138889        22
       18            0.916667            0.916667            0.833333          0.00694444        23
       19            0.833333            0.833333                   0          0.00347222        26
       20            0.916667                0.75                0.75           0.0138889        27
       21            0.666667            0.666667            0.833333           0.0138889        28
       22            0.833333            0.833333                0.25           0.0138889        29
       23            0.833333            0.833333            0.333333           0.0138889        30
       24            0.833333            0.833333            0.416667           0.0138889        31
       25            0.833333            0.833333                 0.5           0.0138889        32
       26            0.833333            0.833333            0.583333           0.0138889        33
       27            0.833333            0.833333            0.666667          0.00694444        34
       28                   0                0.75                0.75          0.00347222        39
       29            0.916667            0.666667            0.666667           0.0138889        40
       30            0.833333            0.583333            0.583333           0.0138889        41
       31                0.75                0.75                0.25           0.0138889        42
       32                0.75                0.75            0.333333           0.0138889        43
       33                0.75                0.75            0.416667           0.0138889        44
       34                0.75                0.75                 0.5          0.00694444        45
       35                   0            0.666667            0.666667          0.00347222        52
       36            0.916667            0.583333            0.583333           0.0138889        53
       37            0.833333                 0.5                 0.5           0.0138889        54
       38            0.666667            0.666667                0.25           0.0138889        55
       39            0.666667            0.666667            0.333333          0.00694444        56
       40            0.583333            0.583333                   0          0.00347222        65
       41            0.916667                 0.5                 0.5           0.0138889        66
       42            0.833333            0.416667            0.416667          0.00694444        67
       43                   0                 0.5                 0.5          0.00173611        78
       44            0.916667            0.833333                0.75           0.0138889       171
       45            0.916667            0.833333            0.666667           0.0277778       172
       46            0.916667            0.833333            0.583333           0.0277778       173
       47            0.916667            0.833333                 0.5           0.0277778       174
       48            0.916667            0.833333            0.416667           0.0138889       175
       49            0.916667                0.75            0.666667           0.0138889       184
       50            0.916667                0.75            0.583333           0.0277778       185
       51            0.916667                0.75                 0.5           0.0277778       186
       52            0.916667                0.75            0.416667           0.0277778       187
       53            0.916667                0.75            0.333333           0.0277778       188
       54            0.833333                0.75                 0.5           0.0277778       189
       55            0.833333                0.75            0.583333           0.0138889       190
       56            0.916667            0.666667            0.583333           0.0138889       197
       57            0.916667            0.666667                 0.5           0.0277778       198
       58            0.916667            0.666667            0.416667           0.0277778       199
       59            0.916667            0.666667            0.333333           0.0277778       200
       60            0.916667            0.666667                0.25           0.0138889       201
       61            0.916667            0.583333                 0.5           0.0138889       210
       62            0.916667            0.583333            0.416667           0.0277778       211
       63            0.916667            0.583333            0.333333           0.0138889       212
       64            0.916667                 0.5            0.416667          0.00694444       223
       65            0.833333            0.666667                 0.5           0.0138889       342
       66            0.833333            0.666667            0.416667           0.0277778       343
       67            0.833333            0.666667            0.333333           0.0138889       344
       68            0.833333            0.583333            0.416667           0.0138889       355
       69            0.833333            0.583333            0.333333           0.0277778       356
       70            0.833333            0.583333                0.25           0.0138889       357
       71            0.833333                 0.5            0.333333          0.00694444       368
       72                0.75                 0.5                0.25          0.00347222       513
                               nkstot now = 72

  KPOINTS            DIRECT_X            DIRECT_Y            DIRECT_Z              WEIGHT
        1                   0                   0                   0         0.000578704
        2            0.916667            0.916667            0.916667          0.00462963
        3            0.833333            0.833333            0.833333          0.00462963
        4                0.75                0.75                0.75          0.00462963
        5            0.666667            0.666667            0.666667          0.00462963
        6            0.583333            0.583333            0.583333          0.00462963
        7                 0.5                 0.5                 0.5          0.00231481
        8                   0            0.916667            0.916667          0.00347222
        9            0.916667            0.833333            0.833333           0.0138889
       10            0.833333                0.75                0.75           0.0138889
       11            0.916667            0.916667                0.25           0.0138889
       12            0.916667            0.916667            0.333333           0.0138889
       13            0.916667            0.916667            0.416667           0.0138889
       14            0.916667            0.916667                 0.5           0.0138889
       15            0.916667            0.916667            0.583333           0.0138889
       16            0.916667            0.916667            0.666667           0.0138889
       17            0.916667            0.916667                0.75           0.0138889
       18            0.916667            0.916667            0.833333          0.00694444
       19            0.833333            0.833333                   0          0.00347222
       20            0.916667                0.75                0.75           0.0138889
       21            0.666667            0.666667            0.833333           0.0138889
       22            0.833333            0.833333                0.25           0.0138889
       23            0.833333            0.833333            0.333333           0.0138889
       24            0.833333            0.833333            0.416667           0.0138889
       25            0.833333            0.833333                 0.5           0.0138889
       26            0.833333            0.833333            0.583333           0.0138889
       27            0.833333            0.833333            0.666667          0.00694444
       28                   0                0.75                0.75          0.00347222
       29            0.916667            0.666667            0.666667           0.0138889
       30            0.833333            0.583333            0.583333           0.0138889
       31                0.75                0.75                0.25           0.0138889
       32                0.75                0.75            0.333333           0.0138889
       33                0.75                0.75            0.416667           0.0138889
       34                0.75                0.75                 0.5          0.00694444
       35                   0            0.666667            0.666667          0.00347222
       36            0.916667            0.583333            0.583333           0.0138889
       37            0.833333                 0.5                 0.5           0.0138889
       38            0.666667            0.666667                0.25           0.0138889
       39            0.666667            0.666667            0.333333          0.00694444
       40            0.583333            0.583333                   0          0.00347222
       41            0.916667                 0.5                 0.5           0.0138889
       42            0.833333            0.416667            0.416667          0.00694444
       43                   0                 0.5                 0.5          0.00173611
       44            0.916667            0.833333                0.75           0.0138889
       45            0.916667            0.833333            0.666667           0.0277778
       46            0.916667            0.833333            0.583333           0.0277778
       47            0.916667            0.833333                 0.5           0.0277778
       48            0.916667            0.833333            0.416667           0.0138889
       49            0.916667                0.75            0.666667           0.0138889
       50            0.916667                0.75            0.583333           0.0277778
       51            0.916667                0.75                 0.5           0.0277778
       52            0.916667                0.75            0.416667           0.0277778
       53            0.916667                0.75            0.333333           0.0277778
       54            0.833333                0.75                 0.5           0.0277778
       55            0.833333                0.75            0.583333           0.0138889
       56            0.916667            0.666667            0.583333           0.0138889
       57            0.916667            0.666667                 0.5           0.0277778
       58            0.916667            0.666667            0.416667           0.0277778
       59            0.916667            0.666667            0.333333           0.0277778
       60            0.916667            0.666667                0.25           0.0138889
       61            0.916667            0.583333                 0.5           0.0138889
       62            0.916667            0.583333            0.416667           0.0277778
       63            0.916667            0.583333            0.333333           0.0138889
       64            0.916667                 0.5            0.416667          0.00694444
       65            0.833333            0.666667                 0.5           0.0138889
       66            0.833333            0.666667            0.416667           0.0277778
       67            0.833333            0.666667            0.333333           0.0138889
       68            0.833333            0.583333            0.416667           0.0138889
       69            0.833333            0.583333            0.333333           0.0277778
       70            0.833333            0.583333                0.25           0.0138889
       71            0.833333                 0.5            0.333333          0.00694444
       72                0.75                 0.5                0.25          0.00347222

           k-point number in this process = 72
       minimum distributed K point number = 72

  KPOINTS         CARTESIAN_X         CARTESIAN_Y         CARTESIAN_Z              WEIGHT
        1                   0                   0                   0          0.00115741
        2            0.916667            0.916667            0.916667          0.00925926
        3            0.833333            0.833333            0.833333          0.00925926
        4                0.75                0.75                0.75          0.00925926
        5            0.666667            0.666667            0.666667          0.00925926
        6            0.583333            0.583333            0.583333          0.00925926
        7                 0.5                 0.5                 0.5          0.00462963
        8             1.83333                   0                   0          0.00694444
        9                0.75            0.916667            0.916667           0.0277778
       10            0.666667            0.833333            0.833333           0.0277778
       11                0.25                0.25             1.58333           0.0277778
       12            0.333333            0.333333                 1.5           0.0277778
       13            0.416667            0.416667             1.41667           0.0277778
       14                 0.5                 0.5             1.33333           0.0277778
       15            0.583333            0.583333                1.25           0.0277778
       16            0.666667            0.666667             1.16667           0.0277778
       17                0.75                0.75             1.08333           0.0277778
       18            0.833333            0.833333                   1           0.0138889
       19                   0                   0             1.66667          0.00694444
       20            0.583333            0.916667            0.916667           0.0277778
       21            0.833333            0.833333                 0.5           0.0277778
       22                0.25                0.25             1.41667           0.0277778
       23            0.333333            0.333333             1.33333           0.0277778
       24            0.416667            0.416667                1.25           0.0277778
       25                 0.5                 0.5             1.16667           0.0277778
       26            0.583333            0.583333             1.08333           0.0277778
       27            0.666667            0.666667                   1           0.0138889
       28                 1.5                   0                   0          0.00694444
       29            0.416667            0.916667            0.916667           0.0277778
       30            0.333333            0.833333            0.833333           0.0277778
       31                0.25                0.25                1.25           0.0277778
       32            0.333333            0.333333             1.16667           0.0277778
       33            0.416667            0.416667             1.08333           0.0277778
       34                 0.5                 0.5                   1           0.0138889
       35             1.33333                   0                   0          0.00694444
       36                0.25            0.916667            0.916667           0.0277778
       37            0.166667            0.833333            0.833333           0.0277778
       38                0.25                0.25             1.08333           0.0277778
       39            0.333333            0.333333                   1           0.0138889
       40                   0                   0             1.16667          0.00694444
       41           0.0833333            0.916667            0.916667           0.0277778
       42                   0            0.833333            0.833333           0.0138889
       43                   1                   0                   0          0.00347222
       44            0.666667            0.833333                   1           0.0277778
       45            0.583333                0.75             1.08333           0.0555556
       46                 0.5            0.666667             1.16667           0.0555556
       47            0.416667            0.583333                1.25           0.0555556
       48            0.333333                 0.5             1.33333           0.0277778
       49                 0.5            0.833333                   1           0.0277778
       50            0.416667                0.75             1.08333           0.0555556
       51            0.333333            0.666667             1.16667           0.0555556
       52                0.25            0.583333                1.25           0.0555556
       53            0.166667                 0.5             1.33333           0.0555556
       54            0.416667            0.583333             1.08333           0.0555556
       55                 0.5            0.666667                   1           0.0277778
       56            0.333333            0.833333                   1           0.0277778
       57                0.25                0.75             1.08333           0.0555556
       58            0.166667            0.666667             1.16667           0.0555556
       59           0.0833333            0.583333                1.25           0.0555556
       60                   0                 0.5             1.33333           0.0277778
       61            0.166667            0.833333                   1           0.0277778
       62           0.0833333                0.75             1.08333           0.0555556
       63                   0            0.666667             1.16667           0.0277778
       64                   0            0.833333                   1           0.0138889
       65            0.333333            0.666667                   1           0.0277778
       66                0.25            0.583333             1.08333           0.0555556
       67            0.166667                 0.5             1.16667           0.0277778
       68            0.166667            0.666667                   1           0.0277778
       69           0.0833333            0.583333             1.08333           0.0555556
       70                   0                 0.5             1.16667           0.0277778
       71                   0            0.666667                   1           0.0138889
       72                   0                 0.5                   1          0.00694444

  KPOINTS            DIRECT_X            DIRECT_Y            DIRECT_Z              WEIGHT
        1                   0                   0                   0          0.00115741
        2            0.916667            0.916667            0.916667          0.00925926
        3            0.833333            0.833333            0.833333          0.00925926
        4                0.75                0.75                0.75          0.00925926
        5            0.666667            0.666667            0.666667          0.00925926
        6            0.583333            0.583333            0.583333          0.00925926
        7                 0.5                 0.5                 0.5          0.00462963
        8                   0            0.916667            0.916667          0.00694444
        9            0.916667            0.833333            0.833333           0.0277778
       10            0.833333                0.75                0.75           0.0277778
       11            0.916667            0.916667                0.25           0.0277778
       12            0.916667            0.916667            0.333333           0.0277778
       13            0.916667            0.916667            0.416667           0.0277778
       14            0.916667            0.916667                 0.5           0.0277778
       15            0.916667            0.916667            0.583333           0.0277778
       16            0.916667            0.916667            0.666667           0.0277778
       17            0.916667            0.916667                0.75           0.0277778
       18            0.916667            0.916667            0.833333           0.0138889
       19            0.833333            0.833333                   0          0.00694444
       20            0.916667                0.75                0.75           0.0277778
       21            0.666667            0.666667            0.833333           0.0277778
       22            0.833333            0.833333                0.25           0.0277778
       23            0.833333            0.833333            0.333333           0.0277778
       24            0.833333            0.833333            0.416667           0.0277778
       25            0.833333            0.833333                 0.5           0.0277778
       26            0.833333            0.833333            0.583333           0.0277778
       27            0.833333            0.833333            0.666667           0.0138889
       28                   0                0.75                0.75          0.00694444
       29            0.916667            0.666667            0.666667           0.0277778
       30            0.833333            0.583333            0.583333           0.0277778
       31                0.75                0.75                0.25           0.0277778
       32                0.75                0.75            0.333333           0.0277778
       33                0.75                0.75            0.416667           0.0277778
       34                0.75                0.75                 0.5           0.0138889
       35                   0            0.666667            0.666667          0.00694444
       36            0.916667            0.583333            0.583333           0.0277778
       37            0.833333                 0.5                 0.5           0.0277778
       38            0.666667            0.666667                0.25           0.0277778
       39            0.666667            0.666667            0.333333           0.0138889
       40            0.583333            0.583333                   0          0.00694444
       41            0.916667                 0.5                 0.5           0.0277778
       42            0.833333            0.416667            0.416667           0.0138889
       43                   0                 0.5                 0.5          0.00347222
       44            0.916667            0.833333                0.75           0.0277778
       45            0.916667            0.833333            0.666667           0.0555556
       46            0.916667            0.833333            0.583333           0.0555556
       47            0.916667            0.833333                 0.5           0.0555556
       48            0.916667            0.833333            0.416667           0.0277778
       49            0.916667                0.75            0.666667           0.0277778
       50            0.916667                0.75            0.583333           0.0555556
       51            0.916667                0.75                 0.5           0.0555556
       52            0.916667                0.75            0.416667           0.0555556
       53            0.916667                0.75            0.333333           0.0555556
       54            0.833333                0.75                 0.5           0.0555556
       55            0.833333                0.75            0.583333           0.0277778
       56            0.916667            0.666667            0.583333           0.0277778
       57            0.916667            0.666667                 0.5           0.0555556
       58            0.916667            0.666667            0.416667           0.0555556
       59            0.916667            0.666667            0.333333           0.0555556
       60            0.916667            0.666667                0.25           0.0277778
       61            0.916667            0.583333                 0.5           0.0277778
       62            0.916667            0.583333            0.416667           0.0555556
       63            0.916667            0.583333            0.333333           0.0277778
       64            0.916667                 0.5            0.416667           0.0138889
       65            0.833333            0.666667                 0.5           0.0277778
       66            0.833333            0.666667            0.416667           0.0555556
       67            0.833333            0.666667            0.333333           0.0277778
       68            0.833333            0.583333            0.416667           0.0277778
       69            0.833333            0.583333            0.333333           0.0555556
       70            0.833333            0.583333                0.25           0.0277778
       71            0.833333                 0.5            0.333333           0.0138889
       72                0.75                 0.5                0.25          0.00694444
 DONE : INIT K-POINTS Time : 0.090055 (SEC)





 >>>>>>>>>>>>>>>>>>>>>>>>>>>>>>>>>>>>>>>>>>>>>>>>>>>>>>>>>>>>>>>>>>>>>>
 |                                                                    |
 | Setup plane waves:                                                 |
 | Use the energy cutoff and the lattice vectors to generate the      |
 | dimensions of FFT grid. The number of FFT grid on each processor   |
 | is 'nrxx'. The number of plane wave basis in reciprocal space is   |
 | different for charege/potential and wave functions. We also set    |
 | the 'sticks' for the parallel of FFT.                              |
 |                                                                    |
 <<<<<<<<<<<<<<<<<<<<<<<<<<<<<<<<<<<<<<<<<<<<<<<<<<<<<<<<<<<<<<<<<<<<<<





 SETUP THE PLANE WAVE BASIS
     energy cutoff for wavefunc (unit:Ry) = 75
            [fft grid for wave functions] = 45, 45, 45
          [fft grid for charge/potential] = 45, 45, 45
                      [fft grid division] = 1, 1, 1
      [big fft grid for charge/potential] = 45, 45, 45
                                     nbxx = 91125
                                     nrxx = 91125

 SETUP PLANE WAVES FOR CHARGE/POTENTIAL
                    number of plane waves = 27941
                         number of sticks = 1213

 SETUP PLANE WAVES FOR WAVE FUNCTIONS
                    number of plane waves = 4957
                         number of sticks = 379

 PARALLEL PW FOR CHARGE/POTENTIAL
     PROC   COLUMNS(POT)             PW
        1           1213          27941
 --------------- sum -------------------
        1           1213          27941

 PARALLEL PW FOR WAVE FUNCTIONS
     PROC     COLUMNS(W)             PW
        1            379           4957
 --------------- sum -------------------
        1            379           4957

 SETUP COORDINATES OF PLANE WAVES
              number of total plane waves = 27941

 SETUP COORDINATES OF PLANE WAVES
                            number of |g| = 300
                                  max |g| = 891
                                  min |g| = 0
 DONE : INIT PLANEWAVE Time : 0.197646 (SEC)

                                     npwx = 3519

 SETUP NONLOCAL PSEUDOPOTENTIALS IN PLANE WAVE BASIS
 Si non-local projectors:
      TOTAL NUMBER OF NONLOCAL PROJECTORS = 0

 nhm = 0, not allocate some matrix. DONE : LOCAL POTENTIAL Time : 0.275098 (SEC)


 Init Non-Local PseudoPotential table : 
 Init Non-Local-Pseudopotential done.
 DONE : NON-LOCAL POTENTIAL Time : 0.275169 (SEC)

                                start_pot = atomic
 DONE : INIT POTENTIAL Time : 0.335329 (SEC)


 Make real space PAO into reciprocal space.
       max mesh points in Pseudopotential = 1601
     dq(describe PAO in reciprocal space) = 0.01
                                    max q = 1045

 number of pseudo atomic orbitals for Si is 0
 DONE : INIT BASIS Time : 17.1214 (SEC)


 -------------------------------------------
 SELF-CONSISTENT
 -------------------------------------------

 PW ALGORITHM --------------- ION=   1  ELEC=   1--------------------------------
  K-point    CG iter num      Time(Sec)
        1       6.083333       1.854031
        2       6.500000       1.975905
        3       6.750000       2.090091
        4       7.583333       2.089855
        5       7.250000       2.045990
        6       6.750000       1.917116
        7       6.500000       1.824496
        8       6.666667       1.809531
        9       7.333333       1.900593
       10       7.333333       2.029807
       11       7.333333       2.004994
       12       6.750000       1.883899
       13       7.166667       1.988151
       14       7.500000       2.082258
       15       7.583333       2.284287
       16       7.416667       2.282361
       17       7.500000       2.146938
       18       6.666667       1.881798
       19       7.333333       2.054549
       20       7.750000       2.036364
       21       7.166667       2.014074
       22       7.333333       2.051909
       23       6.750000       1.901940
       24       7.750000       2.141433
       25       6.833333       1.912968
       26       7.250000       1.953902
       27       7.666667       2.113953
       28       8.000000       2.483220
       29       7.166667       2.255909
       30       7.083333       2.240135
       31       7.250000       2.264499
       32       7.083333       2.083096
       33       7.500000       2.057167
       34       7.500000       2.011242
       35       6.916667       1.955114
       36       7.416667       2.040898
       37       7.416667       2.131547
       38       7.250000       1.779631
       39       6.750000       2.032279
       40       7.000000       2.105229
       41       7.083333       2.183659
       42       7.083333       2.160584
       43       7.083333       2.175883
       44       7.583333       1.960483
       45       7.166667       2.088438
       46       7.083333       2.157005
       47       6.833333       1.978416
       48       6.666667       1.638053
       49       7.750000       2.059175
       50       7.000000       2.008440
       51       7.416667       2.132956
       52       7.083333       2.055985
       53       7.666667       2.240444
       54       7.416667       2.111974
       55       7.083333       2.121793
       56       7.583333       2.302157
       57       7.083333       1.992728
       58       7.416667       2.117082
       59       7.583333       2.272174
       60       7.166667       2.180835
       61       6.916667       2.051877
       62       7.416667       2.267699
       63       7.500000       2.306925
       64       6.666667       1.936526
       65       7.166667       2.201871
       66       7.000000       2.039484
       67       6.916667       2.074876
       68       7.833333       2.199032
       69       6.333333       1.781034
       70       7.500000       2.032808
       71       7.250000       2.032621
       72       6.250000       1.879329

 Density error is 1.249555135757
                          Error Threshold = 0.010000000000

       Energy                       Rydberg                            eV
   E_KohnSham              -15.988006592417             -217.527989318432
     E_Harris              -16.519660070884             -224.761505987112
      E_Fermi               +0.139412631881               +1.896806166761

 PW ALGORITHM --------------- ION=   1  ELEC=   2--------------------------------
  K-point    CG iter num      Time(Sec)
        1       2.166667       0.792065
        2       2.166667       0.785911
        3       2.333333       0.855906
        4       2.333333       0.858878
        5       2.333333       0.849932
        6       2.500000       0.920996
        7       2.500000       0.933624
        8       2.166667       0.853320
        9       2.166667       0.871369
       10       2.333333       0.911051
       11       2.250000       0.803449
       12       2.500000       0.762272
       13       2.416667       0.782573
       14       2.416667       0.798352
       15       2.416667       0.862121
       16       2.333333       0.881539
       17       2.250000       0.844196
       18       2.166667       0.841339
       19       2.250000       0.912038
       20       2.416667       0.951431
       21       2.333333       0.936057
       22       2.333333       0.966258
       23       2.500000       1.008521
       24       2.416667       0.965309
       25       2.416667       0.933362
       26       2.666667       0.998242
       27       2.250000       0.891922
       28       2.166667       0.884285
       29       2.166667       0.885390
       30       2.333333       0.965013
       31       2.416667       0.955934
       32       2.416667       0.980122
       33       2.333333       0.972973
       34       2.333333       0.867020
       35       2.333333       0.851064
       36       2.250000       0.883549
       37       2.500000       0.981196
       38       2.416667       0.961636
       39       2.916667       1.117118
       40       2.333333       0.931964
       41       2.416667       0.982323
       42       2.416667       0.943113
       43       2.416667       0.885998
       44       2.333333       0.834181
       45       2.333333       0.917636
       46       2.416667       0.921510
       47       2.416667       0.942011
       48       2.416667       0.928745
       49       2.166667       0.891621
       50       2.333333       0.988672
       51       2.416667       1.009552
       52       2.416667       1.023724
       53       2.416667       1.026423
       54       2.416667       1.025250
       55       2.333333       0.992627
       56       2.333333       0.978269
       57       2.250000       0.830733
       58       2.666667       1.024025
       59       2.500000       0.995760
       60       2.583333       1.036795
       61       2.416667       1.025273
       62       2.500000       0.742926
       63       2.500000       0.883015
       64       2.500000       1.011881
       65       2.416667       1.005794
       66       2.500000       1.013578
       67       2.416667       0.992149
       68       2.500000       1.020787
       69       2.333333       0.980061
       70       2.416667       1.032684
       71       2.583333       1.093667
       72       2.333333       1.006373

 Density error is 0.033648723020
                          Error Threshold = 0.010000000000

       Energy                       Rydberg                            eV
   E_KohnSham              -16.087870873231             -218.886712564171
     E_Harris              -16.079621346446             -218.774471994094
      E_Fermi               +0.322215013455               +4.383960164131

 PW ALGORITHM --------------- ION=   1  ELEC=   3--------------------------------
  K-point    CG iter num      Time(Sec)
        1       2.416667       0.919993
        2       3.500000       1.109112
        3       2.833333       0.934496
        4       2.833333       0.966493
        5       2.916667       0.952878
        6       3.583333       1.059242
        7       5.000000       1.152967
        8       3.250000       0.863314
        9       3.166667       1.099621
       10       3.250000       1.141079
       11       3.333333       1.169966
       12       3.666667       1.196682
       13       4.000000       1.263959
       14       3.166667       1.093701
       15       3.083333       1.102964
       16       3.083333       1.091639
       17       3.083333       1.081206
       18       3.583333       1.229266
       19       3.166667       1.110692
       20       3.500000       1.199692
       21       3.000000       1.042261
       22       4.000000       1.255915
       23       3.750000       0.917281
       24       4.250000       1.302247
       25       2.916667       0.944282
       26       3.000000       1.021310
       27       3.083333       1.030886
       28       3.666667       1.205041
       29       3.916667       1.136507
       30       3.166667       0.837080
       31       4.083333       1.115098
       32       3.416667       0.992356
       33       3.583333       1.040780
       34       3.666667       1.010835
       35       3.333333       0.860637
       36       3.416667       0.907203
       37       2.833333       0.800608
       38       4.333333       1.153463
       39       3.416667       0.946985
       40       3.416667       1.006509
       41       4.166667       1.332859
       42       3.250000       1.146721
       43       3.416667       1.116748
       44       3.000000       1.027548
       45       3.083333       0.977743
       46       3.333333       1.057081
       47       3.416667       1.039219
       48       3.333333       1.086163
       49       3.666667       1.170140
       50       3.583333       1.155658
       51       3.333333       1.108085
       52       2.916667       1.026981
       53       3.416667       1.149712
       54       3.083333       1.079097
       55       3.916667       1.312608
       56       4.083333       1.349672
       57       3.583333       1.140994
       58       3.083333       1.038775
       59       3.250000       1.137391
       60       3.166667       1.078540
       61       3.083333       0.975530
       62       3.333333       1.061316
       63       3.333333       1.082358
       64       3.333333       1.095986
       65       4.083333       1.338844
       66       3.166667       1.080893
       67       3.083333       1.079069
       68       3.250000       0.834007
       69       3.333333       0.533040
       70       3.000000       0.781159
       71       2.666667       0.443575
       72       3.000000       0.421408

 Density error is 0.000722808466
                          Error Threshold = 0.000420609038

       Energy                       Rydberg                            eV
   E_KohnSham              -16.092342085708             -218.947546530839
     E_Harris              -16.092071041619             -218.943858786810
      E_Fermi               +0.347655849952               +4.730100502380

 PW ALGORITHM --------------- ION=   1  ELEC=   4--------------------------------
  K-point    CG iter num      Time(Sec)
        1       3.333333       0.475997
        2       2.916667       0.415498
        3       3.083333       0.422529
        4       3.333333       0.459431
        5       3.250000       0.809312
        6       3.416667       1.047785
        7       4.000000       1.165401
        8       3.500000       1.065641
        9       3.250000       1.034092
       10       3.083333       0.983977
       11       3.083333       0.981651
       12       3.416667       1.039255
       13       4.500000       1.276463
       14       3.916667       1.136420
       15       3.500000       0.983230
       16       3.250000       0.861991
       17       3.333333       0.864298
       18       3.416667       0.870280
       19       3.250000       0.857012
       20       3.666667       1.046832
       21       3.750000       1.094115
       22       3.750000       1.104700
       23       3.750000       1.095096
       24       3.666667       1.027296
       25       3.500000       1.007262
       26       3.666667       1.060385
       27       3.500000       1.020316
       28       3.083333       0.850023
       29       3.333333       0.875683
       30       3.833333       0.972551
       31       3.916667       0.977250
       32       3.750000       0.912484
       33       3.333333       0.843411
       34       3.666667       0.897757
       35       3.666667       0.881938
       36       4.000000       0.922636
       37       3.916667       0.889938
       38       3.833333       0.835731
       39       3.666667       0.730019
       40       4.750000       0.856718
       41       4.333333       0.808450
       42       5.416667       0.577677
       43       3.750000       0.323824
       44       3.583333       0.313827
       45       3.250000       0.289691
       46       3.333333       0.299520
       47       3.750000       0.336340
       48       3.500000       0.315523
       49       3.333333       0.299517
       50       3.416667       0.304893
       51       3.583333       0.316235
       52       3.583333       0.309084
       53       3.416667       0.292316
       54       4.000000       0.341183
       55       3.500000       0.287937
       56       4.250000       0.347484
       57       3.666667       0.307529
       58       3.500000       0.303540
       59       3.250000       0.278786
       60       4.000000       0.305925
       61       4.250000       0.345136
       62       3.666667       0.295806
       63       3.500000       0.288724
       64       3.666667       0.295721
       65       3.750000       0.303495
       66       3.416667       0.281793
       67       3.166667       0.277034
       68       4.250000       0.353789
       69       3.583333       0.297271
       70       3.833333       0.325450
       71       3.583333       0.297719
       72       3.000000       0.256861

 Density error is 0.000004261800
                          Error Threshold = 0.000009035106

       Energy                       Rydberg                            eV
   E_KohnSham              -16.092607383400             -218.951156091109
     E_Harris              -16.092605189516             -218.951126241789
      E_Fermi               +0.344308948079               +4.684563566257

 PW ALGORITHM --------------- ION=   1  ELEC=   5--------------------------------
  K-point    CG iter num      Time(Sec)
        1       3.666667       0.248777
        2       4.333333       0.283839
        3       3.750000       0.255075
        4       3.416667       0.241421
        5       3.833333       0.265577
        6       4.166667       0.271172
        7       4.583333       0.290040
        8       3.666667       0.239270
        9       3.750000       0.242106
       10       3.666667       0.249478
       11       3.750000       0.241461
       12       4.166667       0.257442
       13       4.583333       0.299349
       14       4.166667       0.278502
       15       4.000000       0.282539
       16       3.500000       0.262360
       17       3.833333       0.266871
       18       4.250000       0.271114
       19       3.833333       0.270669
       20       3.916667       0.287528
       21       3.583333       0.265491
       22       4.000000       0.286875
       23       4.666667       0.325577
       24       4.000000       0.292770
       25       3.833333       0.280058
       26       4.166667       0.294551
       27       3.833333       0.279827
       28       4.333333       0.315159
       29       4.166667       0.279760
       30       8.166667       0.498145
       31       4.416667       0.293413
       32       3.916667       0.261230
       33       3.750000       0.244152
       34       4.166667       0.267240
       35       4.166667       0.262895
       36       3.916667       0.231821
       37       4.416667       0.238905
       38       4.333333       0.222169
       39       3.833333       0.197884
       40       4.000000       0.203307
       41       4.250000       0.216575
       42       5.166667       0.249653
       43       4.333333       0.219361
       44       3.833333       0.197798
       45       3.750000       0.199931
       46       3.750000       0.194780
       47       4.500000       0.228500
       48       3.916667       0.202602
       49       3.916667       0.203045
       50       4.250000       0.212916
       51       4.416667       0.222400
       52       4.166667       0.210335
       53       4.000000       0.202931
       54       3.500000       0.182991
       55       4.500000       0.218983
       56       4.250000       0.208001
       57       4.416667       0.212507
       58       4.416667       0.211760
       59       3.750000       0.183449
       60       4.000000       0.192500
       61       4.500000       0.215227
       62       4.416667       0.221803
       63       4.083333       0.202367
       64       4.500000       0.219201
       65       4.833333       0.227538
       66       4.166667       0.201785
       67       3.833333       0.190908
       68       3.583333       0.178681
       69       3.916667       0.186742
       70       4.500000       0.198673
       71       3.666667       0.154000
       72       3.833333       0.161939

 Density error is 0.000000324638
                          Error Threshold = 0.000000053272

       Energy                       Rydberg                            eV
   E_KohnSham              -16.092608346920             -218.951169200478
     E_Harris              -16.092608435071             -218.951170399833
       E_band               -0.354226773980               -4.819502510280
   E_one_elec               +3.210033832055              +43.674750888716
    E_Hartree               +1.232698030064              +16.771717122248
         E_xc               -4.624406136998              -62.918273329341
      E_Ewald              -15.910933883642             -216.479361318794
      E_demet               -0.000000188400               -0.000002563308
      E_descf               +0.000000000000               +0.000000000000
     E_efield               +0.000000000000               +0.000000000000
        E_exx               +0.000000000000               +0.000000000000
      E_Fermi               +0.344163430170               +4.682583693539

 charge density convergence is achieved
 final etot is -218.951169200478 eV

 STATE ENERGY(eV) AND OCCUPATIONS    NSPIN == 1
 1/72 kpoint (Cartesian) = 0.00000 0.00000 0.00000 (3479 pws)
       1      -7.353095       0.001157
       2       4.327812       0.001157
       3       4.681787       0.000765
       4       4.681787       0.000765
       5       4.681786       0.000765
       6       7.252214       0.000000
       7       7.252214       0.000000
       8       7.252214       0.000000
       9      10.974337       0.000000
      10      13.234911       0.000000
      11      13.234910       0.000000
      12      15.467521       0.000000

 2/72 kpoint (Cartesian) = 0.916667 0.916667 0.916667 (3500 pws)
       1      -7.274395       0.009259
       2       3.063539       0.009259
       3       4.543749       0.009259
       4       4.543749       0.009259
       5       5.459793       0.000000
       6       7.450812       0.000000
       7       7.450812       0.000000
       8       7.539199       0.000000
       9      11.431770       0.000000
      10      12.859174       0.000000
      11      12.859174       0.000000
      12      15.058319       0.000000

 3/72 kpoint (Cartesian) = 0.833333 0.833333 0.833333 (3509 pws)
       1      -7.041624       0.009259
       2       1.572394       0.009259
       3       4.244468       0.009259
       4       4.244468       0.009259
       5       5.500059       0.000000
       6       7.874931       0.000000
       7       7.874931       0.000000
       8       8.594681       0.000000
       9      12.402001       0.000000
      10      12.402001       0.000000
      11      12.411284       0.000000
      12      14.596548       0.000000

 4/72 kpoint (Cartesian) = 0.750000 0.750000 0.750000 (3497 pws)
       1      -6.667358       0.009259
       2       0.154300       0.009259
       3       3.937049       0.009259
       4       3.937049       0.009259
       5       5.209727       0.000000
       6       8.217341       0.000000
       7       8.217341       0.000000
       8      10.010716       0.000000
       9      12.421178       0.000000
      10      12.421178       0.000000
      11      12.700392       0.000000
      12      15.389006       0.000000

 5/72 kpoint (Cartesian) = 0.666667 0.666667 0.666667 (3488 pws)
       1      -6.185333       0.009259
       2      -1.099032       0.009259
       3       3.694098       0.009259
       4       3.694098       0.009259
       5       4.931427       0.000000
       6       8.318095       0.000000
       7       8.318095       0.000000
       8      11.511256       0.000000
       9      12.426389       0.000000
      10      13.087880       0.000000
      11      13.087880       0.000000
      12      16.957666       0.000000

 6/72 kpoint (Cartesian) = 0.583333 0.583333 0.583333 (3489 pws)
       1      -5.692487       0.009259
       2      -2.063190       0.009259
       3       3.542499       0.009259
       4       3.542499       0.009259
       5       4.749800       0.000000
       6       8.280270       0.000000
       7       8.280270       0.000000
       8      11.980143       0.000000
       9      13.344136       0.000000
      10      14.284900       0.000000
      11      14.284900       0.000000
      12      16.747539       0.000000

 7/72 kpoint (Cartesian) = 0.500000 0.500000 0.500000 (3498 pws)
       1      -5.448167       0.004630
       2      -2.465892       0.004630
       3       3.491277       0.004630
       4       3.491277       0.004630
       5       4.687610       0.000021
       6       8.250679       0.000000
       7       8.250679       0.000000
       8      11.904848       0.000000
       9      14.911436       0.000000
      10      15.248023       0.000000
      11      15.667638       0.000000
      12      15.667638       0.000000

 8/72 kpoint (Cartesian) = 1.833333 0.000000 0.000000 (3503 pws)
       1      -7.247963       0.006944
       2       2.971034       0.006944
       3       4.284364       0.006944
       4       4.284364       0.006944
       5       6.015964       0.000000
       6       6.906588       0.000000
       7       7.793991       0.000000
       8       7.793991       0.000000
       9      11.568522       0.000000
      10      12.230332       0.000000
      11      13.359607       0.000000
      12      15.686357       0.000000

 9/72 kpoint (Cartesian) = 0.750000 0.916667 0.916667 (3508 pws)
       1      -7.065830       0.027778
       2       1.861732       0.027778
       3       3.938471       0.027778
       4       3.981718       0.027778
       5       6.336505       0.000000
       6       6.965966       0.000000
       7       8.310430       0.000000
       8       8.554549       0.000000
       9      11.648663       0.000000
      10      12.409482       0.000000
      11      13.196833       0.000000
      12      15.209055       0.000000

 10/72 kpoint (Cartesian) = 0.666667 0.833333 0.833333 (3501 pws)
       1      -6.736708       0.027778
       2       0.528541       0.027778
       3       3.600087       0.027778
       4       3.631813       0.027778
       5       6.105349       0.000000
       6       7.492921       0.000000
       7       8.722969       0.000000
       8       9.494520       0.000000
       9      11.677783       0.000000
      10      13.129142       0.000000
      11      13.206338       0.000000
      12      15.249610       0.000000

 11/72 kpoint (Cartesian) = 0.250000 0.250000 1.583333 (3499 pws)
       1      -6.284534       0.027778
       2      -0.737830       0.027778
       3       3.226788       0.027778
       4       3.419024       0.027778
       5       5.817538       0.000000
       6       7.892779       0.000000
       7       8.838724       0.000000
       8      10.348652       0.000000
       9      12.536723       0.000000
      10      13.171769       0.000000
      11      13.651598       0.000000
      12      16.546604       0.000000

 12/72 kpoint (Cartesian) = 0.333333 0.333333 1.500000 (3493 pws)
       1      -5.776092       0.027778
       2      -1.794913       0.027778
       3       2.933576       0.027778
       4       3.319644       0.027778
       5       5.595052       0.000000
       6       8.026976       0.000000
       7       8.729554       0.000000
       8      11.398911       0.000000
       9      12.894804       0.000000
      10      14.073234       0.000000
      11      14.741874       0.000000
      12      16.715176       0.000000

 13/72 kpoint (Cartesian) = 0.416667 0.416667 1.416667 (3490 pws)
       1      -5.406777       0.027778
       2      -2.417796       0.027778
       3       2.747759       0.027778
       4       3.337049       0.027778
       5       5.475108       0.000000
       6       8.095331       0.000000
       7       8.572518       0.000000
       8      12.132843       0.000000
       9      13.487270       0.000000
      10      15.127614       0.000000
      11      15.545671       0.000000
      12      15.711530       0.000000

 14/72 kpoint (Cartesian) = 0.500000 0.500000 1.333333 (3495 pws)
       1      -5.494339       0.027778
       2      -2.278438       0.027778
       3       2.682416       0.027778
       4       3.465513       0.027778
       5       5.470497       0.000000
       6       8.217848       0.000000
       7       8.457058       0.000000
       8      12.190150       0.000000
       9      13.481324       0.000000
      10      13.959543       0.000000
      11      15.110992       0.000000
      12      16.313565       0.000000

 15/72 kpoint (Cartesian) = 0.583333 0.583333 1.250000 (3487 pws)
       1      -5.945533       0.027778
       2      -1.472713       0.027778
       3       2.747022       0.027778
       4       3.691736       0.027778
       5       5.580524       0.000000
       6       8.367890       0.000000
       7       8.377916       0.000000
       8      11.440044       0.000000
       9      12.672368       0.000000
      10      12.901247       0.000000
      11      14.848338       0.000000
      12      16.647973       0.000000

 16/72 kpoint (Cartesian) = 0.666667 0.666667 1.166667 (3497 pws)
       1      -6.447650       0.027778
       2      -0.331390       0.027778
       3       2.951351       0.027778
       4       3.991166       0.027778
       5       5.786140       0.000000
       6       8.192107       0.000000
       7       8.399040       0.000000
       8      10.254915       0.000000
       9      11.887253       0.000000
      10      12.907152       0.000000
      11      13.816301       0.000000
      12      16.031485       0.000000

 17/72 kpoint (Cartesian) = 0.750000 0.750000 1.083333 (3506 pws)
       1      -6.862729       0.027778
       2       0.957972       0.027778
       3       3.311773       0.027778
       4       4.313612       0.027778
       5       6.010797       0.000000
       6       7.841077       0.000000
       7       7.981484       0.000000
       8       9.324444       0.000000
       9      11.746237       0.000000
      10      12.670200       0.000000
      11      13.151159       0.000000
      12      15.176359       0.000000

 18/72 kpoint (Cartesian) = 0.833333 0.833333 1.000000 (3519 pws)
       1      -7.144062       0.013889
       2       2.209060       0.013889
       3       3.871754       0.013889
       4       4.550469       0.013889
       5       5.949332       0.000000
       6       7.482205       0.000000
       7       7.490692       0.000000
       8       8.416295       0.000000
       9      12.074821       0.000000
      10      12.155809       0.000000
      11      12.817580       0.000000
      12      15.345246       0.000000

 19/72 kpoint (Cartesian) = 0.000000 0.000000 1.666667 (3515 pws)
       1      -6.934267       0.006944
       2       1.493017       0.006944
       3       3.566744       0.006944
       4       3.566744       0.006944
       5       6.252552       0.000000
       6       7.200572       0.000000
       7       8.937185       0.000000
       8       8.937185       0.000000
       9      11.037700       0.000000
      10      12.958391       0.000000
      11      13.733627       0.000000
      12      16.345808       0.000000

 20/72 kpoint (Cartesian) = 0.583333 0.916667 0.916667 (3501 pws)
       1      -6.652456       0.027778
       2       0.560647       0.027778
       3       3.138494       0.027778
       4       3.246464       0.027778
       5       6.246907       0.000000
       6       7.342065       0.000000
       7       9.392477       0.000000
       8       9.496148       0.000000
       9      11.307840       0.000000
      10      13.859758       0.000000
      11      13.871937       0.000000
      12      16.078649       0.000000

 21/72 kpoint (Cartesian) = 0.833333 0.833333 0.500000 (3502 pws)
       1      -6.237013       0.027778
       2      -0.537824       0.027778
       3       2.621541       0.027778
       4       3.030765       0.027778
       5       6.354105       0.000000
       6       7.672083       0.000000
       7       9.344633       0.000000
       8       9.737223       0.000000
       9      12.631627       0.000000
      10      14.281051       0.000000
      11      14.295241       0.000000
      12      16.562386       0.000000

 22/72 kpoint (Cartesian) = 0.250000 0.250000 1.416667 (3496 pws)
       1      -5.733228       0.027778
       2      -1.572198       0.027778
       3       2.167197       0.027778
       4       2.940509       0.027778
       5       6.248501       0.000000
       6       8.162102       0.000000
       7       9.648946       0.000000
       8       9.702647       0.000000
       9      13.977881       0.000000
      10      14.364566       0.000000
      11      15.267129       0.000000
      12      16.752801       0.000000

 23/72 kpoint (Cartesian) = 0.333333 0.333333 1.333333 (3497 pws)
       1      -5.278542       0.027778
       2      -2.326730       0.027778
       3       1.840084       0.027778
       4       2.980460       0.027778
       5       6.162043       0.000000
       6       8.298558       0.000000
       7       9.427234       0.000000
       8      10.842741       0.000000
       9      13.697390       0.000000
      10      15.349011       0.000000
      11      15.453950       0.000000
      12      16.026962       0.000000

 24/72 kpoint (Cartesian) = 0.416667 0.416667 1.250000 (3484 pws)
       1      -5.197395       0.027778
       2      -2.446454       0.027778
       3       1.665374       0.027778
       4       3.144707       0.027778
       5       6.175762       0.000000
       6       8.381420       0.000000
       7       9.202765       0.000000
       8      12.152778       0.000000
       9      12.860576       0.000000
      10      13.794584       0.000000
      11      14.739021       0.000000
      12      17.648907       0.000000

 25/72 kpoint (Cartesian) = 0.500000 0.500000 1.166667 (3486 pws)
       1      -5.578488       0.027778
       2      -1.843946       0.027778
       3       1.666475       0.027778
       4       3.416156       0.027778
       5       6.288875       0.000000
       6       8.533246       0.000000
       7       8.982582       0.000000
       8      11.186041       0.000000
       9      12.448848       0.000000
      10      13.614700       0.000000
      11      15.278882       0.000000
      12      16.993636       0.000000

 26/72 kpoint (Cartesian) = 0.583333 0.583333 1.083333 (3486 pws)
       1      -6.088509       0.027778
       2      -0.892307       0.027778
       3       1.885595       0.027778
       4       3.759730       0.027778
       5       6.450906       0.000000
       6       8.619226       0.000000
       7       8.664775       0.000000
       8      10.015771       0.000000
       9      11.613394       0.000000
      10      14.074679       0.000000
      11      15.187413       0.000000
      12      16.526213       0.000000

 27/72 kpoint (Cartesian) = 0.666667 0.666667 1.000000 (3491 pws)
       1      -6.537499       0.013889
       2       0.112637       0.013889
       3       2.408350       0.013889
       4       4.103979       0.013889
       5       6.480646       0.000000
       6       8.202056       0.000000
       7       8.217332       0.000000
       8       9.633687       0.000000
       9      11.419443       0.000000
      10      13.572293       0.000000
      11      13.981234       0.000000
      12      15.990639       0.000000

 28/72 kpoint (Cartesian) = 1.500000 0.000000 0.000000 (3511 pws)
       1      -6.417311       0.006944
       2       0.066093       0.006944
       3       2.905619       0.006944
       4       2.905619       0.006944
       5       5.670966       0.000000
       6       7.274688       0.000000
       7      10.287368       0.000000
       8      10.287368       0.000000
       9      11.209712       0.000000
      10      14.356748       0.000000
      11      14.713461       0.000000
      12      17.439199       0.000000

 29/72 kpoint (Cartesian) = 0.416667 0.916667 0.916667 (3490 pws)
       1      -6.042291       0.027778
       2      -0.735318       0.027778
       3       2.443972       0.027778
       4       2.668750       0.027778
       5       5.756823       0.000000
       6       7.108852       0.000000
       7      10.288176       0.000000
       8      10.793257       0.000000
       9      12.537260       0.000000
      10      14.813756       0.000000
      11      15.483568       0.000000
      12      17.441126       0.000000

 30/72 kpoint (Cartesian) = 0.333333 0.833333 0.833333 (3486 pws)
       1      -5.557392       0.027778
       2      -1.604484       0.027778
       3       1.830894       0.027778
       4       2.560895       0.027778
       5       5.953296       0.000000
       6       7.603900       0.000000
       7       9.987296       0.000000
       8      10.846698       0.000000
       9      14.325130       0.000000
      10      15.382111       0.000000
      11      15.726058       0.000000
      12      17.394967       0.000000

 31/72 kpoint (Cartesian) = 0.250000 0.250000 1.250000 (3488 pws)
       1      -5.054234       0.027778
       2      -2.356447       0.027778
       3       1.314414       0.027778
       4       2.589814       0.027778
       5       5.991697       0.000000
       6       8.749233       0.000000
       7       9.800084       0.000000
       8      10.628079       0.000000
       9      14.327069       0.000000
      10      15.497903       0.000000
      11      16.054656       0.000000
      12      16.665897       0.000000

 32/72 kpoint (Cartesian) = 0.333333 0.333333 1.166667 (3496 pws)
       1      -4.818220       0.027778
       2      -2.666185       0.027778
       3       0.994232       0.027778
       4       2.751880       0.027778
       5       6.091722       0.000000
       6       9.459030       0.000000
       7      10.325955       0.000000
       8      10.501366       0.000000
       9      12.719123       0.000000
      10      13.811291       0.000000
      11      16.256111       0.000000
      12      17.963292       0.000000

 33/72 kpoint (Cartesian) = 0.416667 0.416667 1.083333 (3488 pws)
       1      -5.111271       0.027778
       2      -2.277099       0.027778
       3       0.927564       0.027778
       4       3.031336       0.027778
       5       6.293832       0.000000
       6       9.518150       0.000000
       7       9.950327       0.000000
       8      11.033397       0.000000
       9      12.228059       0.000000
      10      12.476792       0.000000
      11      16.378327       0.000000
      12      18.278996       0.000000

 34/72 kpoint (Cartesian) = 0.500000 0.500000 1.000000 (3487 pws)
       1      -5.617177       0.013889
       2      -1.570172       0.013889
       3       1.194951       0.013889
       4       3.392470       0.013889
       5       6.514536       0.000000
       6       9.370876       0.000000
       7       9.454571       0.000000
       8       9.842839       0.000000
       9      11.737219       0.000000
      10      13.884579       0.000000
      11      16.244858       0.000000
      12      16.982275       0.000000

 35/72 kpoint (Cartesian) = 1.333333 0.000000 0.000000 (3463 pws)
       1      -5.706576       0.006944
       2      -1.299102       0.006944
       3       2.403423       0.006944
       4       2.403423       0.006944
       5       5.295363       0.000000
       6       6.522090       0.000000
       7      11.720630       0.000000
       8      11.720630       0.000000
       9      12.559640       0.000000
      10      15.228581       0.000000
      11      16.461476       0.000000
      12      18.661686       0.000000

 36/72 kpoint (Cartesian) = 0.250000 0.916667 0.916667 (3481 pws)
       1      -5.248663       0.027778
       2      -1.997644       0.027778
       3       1.966000       0.027778
       4       2.265747       0.027778
       5       5.467036       0.000000
       6       6.413136       0.000000
       7      11.677121       0.000000
       8      12.132766       0.000000
       9      14.136465       0.000000
      10      15.991294       0.000000
      11      16.385371       0.000000
      12      17.659052       0.000000

 37/72 kpoint (Cartesian) = 0.166667 0.833333 0.833333 (3473 pws)
       1      -4.725770       0.027778
       2      -2.667346       0.027778
       3       1.333208       0.027778
       4       2.267087       0.027778
       5       5.637814       0.000000
       6       7.209834       0.000000
       7      11.379929       0.000000
       8      12.018470       0.000000
       9      14.643729       0.000000
      10      15.688122       0.000000
      11      16.184426       0.000000
      12      17.494062       0.000000

 38/72 kpoint (Cartesian) = 0.250000 0.250000 1.083333 (3481 pws)
       1      -4.373385       0.027778
       2      -3.057969       0.027778
       3       0.841048       0.027778
       4       2.406703       0.027778
       5       5.769373       0.000000
       6       8.609523       0.000000
       7      11.148943       0.000000
       8      11.633465       0.000000
       9      12.864620       0.000000
      10      14.060012       0.000000
      11      17.708317       0.000000
      12      18.493466       0.000000

 39/72 kpoint (Cartesian) = 0.333333 0.333333 1.000000 (3498 pws)
       1      -4.614987       0.013889
       2      -2.787468       0.013889
       3       0.664200       0.013889
       4       2.671936       0.013889
       5       6.009634       0.000000
       6      10.252888       0.000000
       7      10.905701       0.000000
       8      10.954170       0.000000
       9      11.288734       0.000000
      10      12.929210       0.000000
      11      18.074487       0.000000
      12      18.415566       0.000000

 40/72 kpoint (Cartesian) = 0.000000 0.000000 1.166667 (3475 pws)
       1      -4.816582       0.006944
       2      -2.585585       0.006944
       3       2.093613       0.006944
       4       2.093613       0.006944
       5       5.177415       0.000000
       6       5.803338       0.000000
       7      13.141413       0.000000
       8      13.141413       0.000000
       9      14.210216       0.000000
      10      16.348537       0.000000
      11      17.026659       0.000000
      12      17.442479       0.000000

 41/72 kpoint (Cartesian) = 0.083333 0.916667 0.916667 (3472 pws)
       1      -4.292396       0.027778
       2      -3.193029       0.027778
       3       1.724046       0.027778
       4       2.060061       0.027778
       5       5.388114       0.000000
       6       5.931759       0.000000
       7      13.110118       0.000000
       8      13.359784       0.000000
       9      14.995930       0.000000
      10      16.049507       0.000000
      11      16.071313       0.000000
      12      17.508020       0.000000

 42/72 kpoint (Cartesian) = 0.000000 0.833333 0.833333 (3464 pws)
       1      -3.949381       0.013889
       2      -3.522148       0.013889
       3       1.164938       0.013889
       4       2.167475       0.013889
       5       5.524987       0.000000
       6       7.056731       0.000000
       7      12.600717       0.000000
       8      12.799588       0.000000
       9      13.449077       0.000000
      10      14.736832       0.000000
      11      17.273888       0.000000
      12      19.061164       0.000000

 43/72 kpoint (Cartesian) = 1.000000 0.000000 0.000000 (3490 pws)
       1      -3.767879       0.003472
       2      -3.767394       0.003472
       3       1.989156       0.003472
       4       1.989156       0.003472
       5       5.343592       0.000000
       6       5.343678       0.000000
       7      14.008027       0.000000
       8      14.008026       0.000000
       9      15.847730       0.000000
      10      15.848037       0.000000
      11      16.458306       0.000000
      12      16.458306       0.000000

 44/72 kpoint (Cartesian) = 0.666667 0.833333 1.000000 (3508 pws)
       1      -6.834343       0.027778
       2       1.013834       0.027778
       3       3.141875       0.027778
       4       3.924711       0.027778
       5       6.786101       0.000000
       6       6.879460       0.000000
       7       8.707097       0.000000
       8       9.231490       0.000000
       9      11.386835       0.000000
      10      13.263933       0.000000
      11      13.272206       0.000000
      12      15.741210       0.000000

 45/72 kpoint (Cartesian) = 0.583333 0.750000 1.083333 (3493 pws)
       1      -6.461659       0.055556
       2      -0.081890       0.055556
       3       2.568842       0.055556
       4       3.672736       0.055556
       5       6.633110       0.000000
       6       7.461980       0.000000
       7       9.143219       0.000000
       8       9.481348       0.000000
       9      11.821221       0.000000
      10      13.599054       0.000000
      11      14.183063       0.000000
      12      16.024948       0.000000

 46/72 kpoint (Cartesian) = 0.500000 0.666667 1.166667 (3491 pws)
       1      -5.980022       0.055556
       2      -1.187773       0.055556
       3       2.221511       0.055556
       4       3.384593       0.055556
       5       6.410226       0.000000
       6       7.900199       0.000000
       7       9.226781       0.000000
       8      10.060538       0.000000
       9      12.741174       0.000000
      10      13.709595       0.000000
      11      15.210764       0.000000
      12      16.554067       0.000000

 47/72 kpoint (Cartesian) = 0.416667 0.583333 1.250000 (3491 pws)
       1      -5.483215       0.055556
       2      -2.091074       0.055556
       3       2.036748       0.055556
       4       3.177194       0.055556
       5       6.252440       0.000000
       6       7.973146       0.000000
       7       9.194543       0.000000
       8      11.163867       0.000000
       9      13.421632       0.000000
      10      14.095422       0.000000
      11      15.172012       0.000000
      12      16.650833       0.000000

 48/72 kpoint (Cartesian) = 0.333333 0.500000 1.333333 (3492 pws)
       1      -5.233337       0.027778
       2      -2.480752       0.027778
       3       1.979062       0.027778
       4       3.102750       0.027778
       5       6.196908       0.000000
       6       7.960816       0.000000
       7       9.167515       0.000000
       8      12.194282       0.000000
       9      12.930647       0.000000
      10      14.341339       0.000000
      11      15.616208       0.000000
      12      15.827320       0.000000

 49/72 kpoint (Cartesian) = 0.500000 0.833333 1.000000 (3504 pws)
       1      -6.325047       0.027778
       2      -0.215762       0.027778
       3       2.488317       0.027778
       4       3.098311       0.027778
       5       6.317013       0.000000
       6       7.381319       0.000000
       7       9.395809       0.000000
       8      10.146154       0.000000
       9      12.014056       0.000000
      10      14.309522       0.000000
      11      14.727055       0.000000
      12      16.614247       0.000000

 50/72 kpoint (Cartesian) = 0.416667 0.750000 1.083333 (3489 pws)
       1      -5.873956       0.055556
       2      -1.126522       0.055556
       3       1.937995       0.055556
       4       2.850890       0.055556
       5       6.576350       0.000000
       6       7.715280       0.000000
       7       9.135855       0.000000
       8      10.541264       0.000000
       9      13.078295       0.000000
      10      14.884796       0.000000
      11      15.437042       0.000000
      12      16.940799       0.000000

 51/72 kpoint (Cartesian) = 0.333333 0.666667 1.166667 (3485 pws)
       1      -5.360942       0.055556
       2      -1.992748       0.055556
       3       1.540389       0.055556
       4       2.678330       0.055556
       5       6.584919       0.000000
       6       8.325157       0.000000
       7       9.319875       0.000000
       8      10.562520       0.000000
       9      14.128367       0.000000
      10      14.493386       0.000000
      11      15.873095       0.000000
      12      16.840291       0.000000

 52/72 kpoint (Cartesian) = 0.250000 0.583333 1.250000 (3488 pws)
       1      -4.981678       0.055556
       2      -2.542369       0.055556
       3       1.292749       0.055556
       4       2.664639       0.055556
       5       6.613074       0.000000
       6       8.319860       0.000000
       7      10.214608       0.000000
       8      10.798393       0.000000
       9      12.680147       0.000000
      10      15.303685       0.000000
      11      15.843125       0.000000
      12      16.102967       0.000000

 53/72 kpoint (Cartesian) = 0.166667 0.500000 1.333333 (3486 pws)
       1      -5.085477       0.055556
       2      -2.396870       0.055556
       3       1.213720       0.055556
       4       2.812622       0.055556
       5       6.734275       0.000000
       6       8.257275       0.000000
       7      10.131336       0.000000
       8      11.135736       0.000000
       9      12.368191       0.000000
      10      13.916686       0.000000
      11      15.649658       0.000000
      12      17.713064       0.000000

 54/72 kpoint (Cartesian) = 0.416667 0.583333 1.083333 (3481 pws)
       1      -5.552246       0.055556
       2      -1.696078       0.055556
       3       1.349087       0.055556
       4       3.089413       0.055556
       5       6.920943       0.000000
       6       8.178050       0.000000
       7       9.540085       0.000000
       8      10.342669       0.000000
       9      12.623736       0.000000
      10      13.936913       0.000000
      11      15.933329       0.000000
      12      17.175735       0.000000

 55/72 kpoint (Cartesian) = 0.500000 0.666667 1.000000 (3487 pws)
       1      -6.053117       0.027778
       2      -0.846833       0.027778
       3       1.777764       0.027778
       4       3.425197       0.027778
       5       7.045249       0.000000
       6       7.709458       0.000000
       7       9.233229       0.000000
       8       9.802446       0.000000
       9      11.972257       0.000000
      10      14.698577       0.000000
      11      15.035393       0.000000
      12      16.776358       0.000000

 56/72 kpoint (Cartesian) = 0.333333 0.833333 1.000000 (3482 pws)
       1      -5.627565       0.027778
       2      -1.437807       0.027778
       3       2.015903       0.027778
       4       2.419217       0.027778
       5       5.934440       0.000000
       6       6.913104       0.000000
       7      10.307316       0.000000
       8      11.657659       0.000000
       9      13.404306       0.000000
      10      15.641426       0.000000
      11      15.866832       0.000000
      12      17.917516       0.000000

 57/72 kpoint (Cartesian) = 0.250000 0.750000 1.083333 (3478 pws)
       1      -5.119830       0.055556
       2      -2.171641       0.055556
       3       1.483119       0.055556
       4       2.231456       0.055556
       5       6.245720       0.000000
       6       7.439492       0.000000
       7       9.993002       0.000000
       8      11.952627       0.000000
       9      14.483447       0.000000
      10      14.848638       0.000000
      11      16.878495       0.000000
      12      17.228118       0.000000

 58/72 kpoint (Cartesian) = 0.166667 0.666667 1.166667 (3477 pws)
       1      -4.651862       0.055556
       2      -2.757684       0.055556
       3       1.022269       0.055556
       4       2.233887       0.055556
       5       6.355795       0.000000
       6       8.715073       0.000000
       7       9.711794       0.000000
       8      11.725345       0.000000
       9      12.965617       0.000000
      10      15.550994       0.000000
      11      16.363148       0.000000
      12      17.380936       0.000000

 59/72 kpoint (Cartesian) = 0.083333 0.583333 1.250000 (3486 pws)
       1      -4.613231       0.055556
       2      -2.798094       0.055556
       3       0.782953       0.055556
       4       2.407267       0.055556
       5       6.540820       0.000000
       6       9.432804       0.000000
       7      10.377331       0.000000
       8      10.789866       0.000000
       9      11.997906       0.000000
      10      13.954285       0.000000
      11      17.385211       0.000000
      12      18.006993       0.000000

 60/72 kpoint (Cartesian) = 0.000000 0.500000 1.333333 (3484 pws)
       1      -5.046462       0.027778
       2      -2.287597       0.027778
       3       0.864216       0.027778
       4       2.714706       0.027778
       5       6.802710       0.000000
       6       9.101480       0.000000
       7       9.667534       0.000000
       8      11.219200       0.000000
       9      12.306139       0.000000
      10      12.880194       0.000000
      11      17.405109       0.000000
      12      17.675210       0.000000

 61/72 kpoint (Cartesian) = 0.166667 0.833333 1.000000 (3469 pws)
       1      -4.759876       0.027778
       2      -2.627395       0.027778
       3       1.760495       0.027778
       4       1.959029       0.027778
       5       5.787185       0.000000
       6       6.295257       0.000000
       7      11.629574       0.000000
       8      13.062772       0.000000
       9      14.891893       0.000000
      10      15.200688       0.000000
      11      16.823101       0.000000
      12      17.869560       0.000000

 62/72 kpoint (Cartesian) = 0.083333 0.750000 1.083333 (3474 pws)
       1      -4.240272       0.055556
       2      -3.195397       0.055556
       3       1.241550       0.055556
       4       1.912450       0.055556
       5       6.062403       0.000000
       6       7.142704       0.000000
       7      11.310054       0.000000
       8      12.585496       0.000000
       9      13.954994       0.000000
      10      15.616087       0.000000
      11      16.465250       0.000000
      12      18.232454       0.000000

 63/72 kpoint (Cartesian) = 0.000000 0.666667 1.166667 (3477 pws)
       1      -4.157584       0.027778
       2      -3.259652       0.027778
       3       0.825697       0.027778
       4       2.088566       0.027778
       5       6.252776       0.000000
       6       8.626713       0.000000
       7      10.958395       0.000000
       8      11.095084       0.000000
       9      13.205325       0.000000
      10      14.395461       0.000000
      11      17.627484       0.000000
      12      18.945969       0.000000

 64/72 kpoint (Cartesian) = 0.000000 0.833333 1.000000 (3470 pws)
       1      -3.748422       0.013889
       2      -3.747932       0.013889
       3       1.738867       0.013889
       4       1.738887       0.013889
       5       5.904086       0.000000
       6       5.904157       0.000000
       7      12.978899       0.000000
       8      12.978921       0.000000
       9      15.253646       0.000000
      10      15.253743       0.000000
      11      16.895961       0.000000
      12      16.896002       0.000000

 65/72 kpoint (Cartesian) = 0.333333 0.666667 1.000000 (3486 pws)
       1      -5.398834       0.027778
       2      -1.804767       0.027778
       3       1.361779       0.027778
       4       2.527326       0.027778
       5       7.344298       0.000000
       6       7.713440       0.000000
       7       8.810063       0.000000
       8      11.479691       0.000000
       9      13.354066       0.000000
      10      14.254009       0.000000
      11      16.730372       0.000000
      12      17.500620       0.000000

 66/72 kpoint (Cartesian) = 0.250000 0.583333 1.083333 (3484 pws)
       1      -4.889029       0.055556
       2      -2.470909       0.055556
       3       1.036405       0.055556
       4       2.240922       0.055556
       5       7.521532       0.000000
       6       8.162181       0.000000
       7       9.131930       0.000000
       8      11.730780       0.000000
       9      12.647922       0.000000
      10      14.386648       0.000000
      11      17.073908       0.000000
      12      17.569795       0.000000

 67/72 kpoint (Cartesian) = 0.166667 0.500000 1.166667 (3498 pws)
       1      -4.611465       0.027778
       2      -2.808599       0.027778
       3       0.935683       0.027778
       4       2.132094       0.027778
       5       7.532834       0.000000
       6       8.125713       0.000000
       7      10.545134       0.000000
       8      10.553083       0.000000
       9      12.186758       0.000000
      10      15.845609       0.000000
      11      16.074032       0.000000
      12      17.049901       0.000000

 68/72 kpoint (Cartesian) = 0.166667 0.666667 1.000000 (3480 pws)
       1      -4.603288       0.027778
       2      -2.762104       0.027778
       3       1.207016       0.027778
       4       1.793289       0.027778
       5       7.176971       0.000000
       6       7.513162       0.000000
       7       9.644709       0.000000
       8      12.325317       0.000000
       9      13.648637       0.000000
      10      14.946835       0.000000
      11      17.271831       0.000000
      12      18.205606       0.000000

 69/72 kpoint (Cartesian) = 0.083333 0.583333 1.083333 (3474 pws)
       1      -4.183445       0.055556
       2      -3.202640       0.055556
       3       0.957413       0.055556
       4       1.653131       0.055556
       5       7.465660       0.000000
       6       8.763866       0.000000
       7       9.343821       0.000000
       8      10.713883       0.000000
       9      13.751905       0.000000
      10      15.728034       0.000000
      11      16.447771       0.000000
      12      18.269736       0.000000

 70/72 kpoint (Cartesian) = 0.000000 0.500000 1.166667 (3481 pws)
       1      -4.385591       0.027778
       2      -2.987610       0.027778
       3       0.846778       0.027778
       4       1.847696       0.027778
       5       7.702294       0.000000
       6       8.943180       0.000000
       7       9.267998       0.000000
       8      10.480324       0.000000
       9      13.318799       0.000000
      10      14.664174       0.000000
      11      17.509788       0.000000
      12      18.503424       0.000000

 71/72 kpoint (Cartesian) = 0.000000 0.666667 1.000000 (3472 pws)
       1      -3.708198       0.013889
       2      -3.707697       0.013889
       3       1.345053       0.013889
       4       1.345102       0.013889
       5       7.236349       0.000000
       6       7.236408       0.000000
       7      10.978243       0.000000
       8      10.978261       0.000000
       9      15.147910       0.000000
      10      15.147969       0.000000
      11      17.058893       0.000000
      12      17.058912       0.000000

 72/72 kpoint (Cartesian) = 0.000000 0.500000 1.000000 (3448 pws)
       1      -3.687382       0.006944
       2      -3.686875       0.006944
       3       1.179662       0.006944
       4       1.179722       0.006944
       5       8.831214       0.000000
       6       8.831411       0.000000
       7       9.143088       0.000000
       8       9.143214       0.000000
       9      15.145150       0.000000
      10      15.145202       0.000000
      11      17.126215       0.000000
      12      17.126242       0.000000



 --------------------------------------------
 !FINAL_ETOT_IS -218.9511692004782901 eV
 --------------------------------------------






  |CLASS_NAME---------|NAME---------------|TIME(Sec)-----|CALLS----|AVG------|PER%-------
                                      total        416.171        17     24.48    100.00%
                 Run_pw     plane_wave_line         416.17         1    416.17    100.00%
               PW_Basis              gen_pw           0.11         1      0.11      0.03%
                Cell_PW        opt_cells_pw         415.97         1    415.97     99.95%
                    FFT               FFT3D         345.19     50466      0.01     82.94%
              Potential            v_of_rho           0.21         6      0.03      0.05%
           H_Hartree_pw           v_hartree           0.11         6      0.02      0.03%
               wavefunc             wfcinit          16.79         1     16.79      4.03%
              Hamilt_PW      diagH_subspace          66.46       360      0.18     15.97%
              Hamilt_PW               h_psi         371.93     19101      0.02     89.37%
              Hamilt_PW                vloc         370.83     19101      0.02     89.11%
                 Hamilt        diagH_LAPACK           0.13       360      0.00      0.03%
                   Ions         opt_ions_pw         399.04         1    399.04     95.88%
              Electrons     self_consistent         399.04         1    399.04     95.88%
               Symmetry        rho_symmetry           0.12         6      0.02      0.03%
              Electrons             c_bands         250.88         3     83.63     60.28%
                 Hamilt            diagH_pw         371.62       360      1.03     89.29%
               Diago_CG                diag         320.26       360      0.89     76.95%
              electrons             c_bands         131.08         3     43.69     31.50%
                 Charge            sum_band          25.94         5      5.19      6.23%
                 Charge             mix_rho           0.25         5      0.05      0.06%
 ----------------------------------------------------------------------------------------

 CLASS_NAME---------|NAME---------------|MEMORY(MB)--------
                                         72.0078
             wavefunc                 evc        46.3931
         Charge_Pulay                Rrho         5.5618
         Charge_Pulay               dRrho         4.8666
         Charge_Pulay                drho         4.8666
              Use_FFT              porter         1.3905
 ----------------------------------------------------------

 Start  Time  : Fri Sep 10 11:31:50 2021
 Finish Time  : Fri Sep 10 11:38:46 2021
 Total  Time  : 0 h 6 mins 56 secs 
