 *********************************************************
 *                                                       *
 *                  WELCOME TO ABACUS v3.0               *
 *                                                       *
 *            'Atomic-orbital Based Ab-initio            *
 *                  Computation at UStc'                 *
 *                                                       *
 *          Website: http://abacus.ustc.edu.cn/          *
 *                                                       *
 *********************************************************
 Tue May  2 12:47:56 2023
 MAKE THE DIR         : OUT.blpstest/
Notice: symbol 'Li_locpsp' is not an element symbol!!!! set the covalent radius to be 0.
 UNIFORM GRID DIM     : 30 * 30 * 30
 UNIFORM GRID DIM(BIG): 30 * 30 * 30
func,idXC_GGA_X_PBE 101
func,idXC_GGA_C_PBE 130
 DONE(0.147526   SEC) : SETUP UNITCELL
 DONE(0.201854   SEC) : SYMMETRY
 DONE(0.202065   SEC) : INIT K-POINTS
 ---------------------------------------------------------
 Self-consistent calculations for electrons
 ---------------------------------------------------------
 SPIN    KPOINTS         PROCESSORS  
 1       1               1           
 ---------------------------------------------------------
 Use plane wave basis
 ---------------------------------------------------------
 ELEMENT NATOM       XC          
 Li      1           
 ---------------------------------------------------------
 Initial plane wave basis and FFT box
 ---------------------------------------------------------
 DONE(0.203439   SEC) : INIT BASIS
 DONE(0.203466   SEC) : INIT PHI
 DONE(0.260176   SEC) : LOCAL POTENTIAL
 DONE(0.26021    SEC) : NON-LOCAL POTENTIAL
 START CHARGE      : atomic
 DONE(0.372961   SEC) : INIT POTENTIAL
 DONE(0.373163   SEC) : INIT OPTIMIZATION
Default type: double
 DONE(0.375561   SEC) : INIT KEDF
======================== Running OFDFT ========================
Iter        Etot(Ha)          Theta      PotNorm     deltaE(Ha)
0     -2.676981223504e-01   2.000e-01   6.526e-02   -2.677e-01  
1     -2.764257656946e-01   6.519e-02   3.772e-02   -8.728e-03  
2     -2.769081168847e-01   7.464e-03   2.265e-02   -4.824e-04  
3     -2.771181506783e-01   1.026e-02   1.153e-02   -2.100e-04  
4     -2.771822614862e-01   7.541e-03   1.019e-03   -6.411e-05  
5     -2.771825676046e-01   3.267e-04   1.555e-04   -3.061e-07  
6     -2.771825839336e-01   1.144e-04   1.408e-05   -1.633e-08  

  |CLASS_NAME---------|NAME---------------|TIME(Sec)-----|CALLS----|AVG------|PER%-------
                       total               17.977         21        0.86      1e+02     %
   Driver              driver_line         17.964         1         18        1e+02     %
   PW_Basis            setuptransform      0.12178        1         0.12      0.68      %
   PW_Basis            recip2real          3.6684         2569      0.0014    20        %
   PW_Basis            gathers_scatterp    0.4134         2569      0.00016   2.3       %
   Potential           update_from_charge  10.552         198       0.053     59        %
   Potential           cal_v_eff           10.549         198       0.053     59        %
   H_Hartree_pw        v_hartree           0.86796        198       0.0044    4.8       %
   PW_Basis            real2recip          3.8809         2569      0.0015    22        %
   PW_Basis            gatherp_scatters    0.38195        2569      0.00015   2.1       %
   PotXC               cal_v_eff           9.6221         198       0.049     54        %
   XC_Functional       v_xc                8.8169         99        0.089     49        %
   XC_Functional       v_xc_libxc          9.5012         198       0.048     53        %
   ESolver_OF          Run                 17.6           1         18        98        %
   KEDF_LKT            LKT_potential       5.8914         197       0.03      33        %
   KEDF_vW             vw_potential        0.75303        197       0.0038    4.2       %
 ----------------------------------------------------------------------------------------

 START  Time  : Tue May  2 12:47:56 2023
 FINISH Time  : Tue May  2 12:48:14 2023
 TOTAL  Time  : 18
 SEE INFORMATION IN : OUT.blpstest/
