 *********************************************************
 *                                                       *
 *                  WELCOME TO ABACUS v3.0               *
 *                                                       *
 *            'Atomic-orbital Based Ab-initio            *
 *                  Computation at UStc'                 *
 *                                                       *
 *          Website: http://abacus.ustc.edu.cn/          *
 *                                                       *
 *********************************************************
 Mon Apr 17 15:14:20 2023
 MAKE THE DIR         : OUT.blpstest/
Notice: symbol 'mg_locpsp' is not an element symbol!!!! set the covalent radius to be 0.
 UNIFORM GRID DIM     : 30 * 30 * 30
 UNIFORM GRID DIM(BIG): 30 * 30 * 30
func,idXC_GGA_X_PBE 101
func,idXC_GGA_C_PBE 130
 DONE(0.196668   SEC) : SETUP UNITCELL
 DONE(0.254279   SEC) : SYMMETRY
 DONE(0.566978   SEC) : INIT K-POINTS
 ---------------------------------------------------------
 Self-consistent calculations for electrons
 ---------------------------------------------------------
 SPIN    KPOINTS         PROCESSORS  
 1       286             1           
 ---------------------------------------------------------
 Use plane wave basis
 ---------------------------------------------------------
 ELEMENT NATOM       XC          
 Mg      1           
 ---------------------------------------------------------
 Initial plane wave basis and FFT box
 ---------------------------------------------------------
 DONE(0.56868    SEC) : INIT BASIS
 DONE(0.568724   SEC) : INIT PHI
 DONE(0.604364   SEC) : LOCAL POTENTIAL
 DONE(0.60451    SEC) : NON-LOCAL POTENTIAL
 START CHARGE      : atomic
 DONE(0.703667   SEC) : INIT POTENTIAL
 DONE(0.703898   SEC) : INIT OPTIMIZATION
 DONE(0.706307   SEC) : INIT KEDF
======================== Running OFDFT ========================
Iter        Etot(Ha)          Theta      PotNorm     deltaE(Ha)
0     -8.334960598433e-01   2.000e-01   9.491e-02   -8.335e-01  
1     -8.744536510631e-01   1.059e-01   5.445e-02   -4.096e-02  
2     -8.756406103741e-01   1.656e-02   1.422e-02   -1.187e-03  
3     -8.757439057681e-01   4.532e-03   7.081e-03   -1.033e-04  
4     -8.757761725695e-01   3.072e-03   4.911e-03   -3.227e-05  
5     -8.757905197026e-01   2.807e-03   4.419e-04   -1.435e-05  
6     -8.757906055008e-01   9.563e-05   3.422e-05   -8.580e-08  
7     -8.757906069802e-01   3.050e-05   2.907e-06   -1.479e-09  

  |CLASS_NAME---------|NAME---------------|TIME(Sec)-----|CALLS----|AVG------|PER%-------
                       total               10.45          21        0.5       1e+02     %
   Driver              driver_line         10.425         1         10        1e+02     %
   PW_Basis            setuptransform      0.15894        1         0.16      1.5       %
   PW_Basis            recip2real          1.3781         1619      0.00085   13        %
   PW_Basis            gathers_scatterp    0.14627        1619      9e-05     1.4       %
   Potential           update_from_charge  5.9532         180       0.033     57        %
   Potential           cal_v_eff           5.9504         180       0.033     57        %
   H_Hartree_pw        v_hartree           0.42966        180       0.0024    4.1       %
   PW_Basis            real2recip          1.8229         1977      0.00092   17        %
   PW_Basis            gatherp_scatters    0.18439        1977      9.3e-05   1.8       %
   PotXC               cal_v_eff           5.4866         180       0.03      53        %
   XC_Functional       v_xc                4.8917         90        0.054     47        %
   XC_Functional       v_xc_libxc          5.3711         180       0.03      51        %
   ESolver_OF          Run                 9.7422         1         9.7       93        %
   KEDF_TF             tf_potential        0.70257        179       0.0039    6.7       %
   KEDF_WT             wt_potential        2.4945         179       0.014     24        %
   KEDF_vW             vw_potential        0.41689        179       0.0023    4         %
 ----------------------------------------------------------------------------------------

 START  Time  : Mon Apr 17 15:14:20 2023
 FINISH Time  : Mon Apr 17 15:14:30 2023
 TOTAL  Time  : 10
 SEE INFORMATION IN : OUT.blpstest/
