 *********************************************************
 *                                                       *
 *                  WELCOME TO ABACUS v3.0               *
 *                                                       *
 *            'Atomic-orbital Based Ab-initio            *
 *                  Computation at UStc'                 *
 *                                                       *
 *          Website: http://abacus.ustc.edu.cn/          *
 *                                                       *
 *********************************************************
 Wed May  3 01:05:26 2023
 MAKE THE DIR         : OUT.oftest/
Notice: symbol 'mg_locpsp' is not an element symbol!!!! set the covalent radius to be 0.
 UNIFORM GRID DIM     : 36 * 36 * 36
 UNIFORM GRID DIM(BIG): 36 * 36 * 36
func,idXC_GGA_X_PBE 101
func,idXC_GGA_C_PBE 130
 DONE(0.241305   SEC) : SETUP UNITCELL
 DONE(0.294719   SEC) : SYMMETRY
 DONE(0.29493    SEC) : INIT K-POINTS
 ---------------------------------------------------------
 Self-consistent calculations for electrons
 ---------------------------------------------------------
 SPIN    KPOINTS         PROCESSORS  
 1       1               1           
 ---------------------------------------------------------
 Use plane wave basis
 ---------------------------------------------------------
 ELEMENT NATOM       XC          
 Mg      1           
 ---------------------------------------------------------
 Initial plane wave basis and FFT box
 ---------------------------------------------------------
 DONE(0.297226   SEC) : INIT BASIS
 DONE(0.297254   SEC) : INIT PHI
 DONE(0.372792   SEC) : LOCAL POTENTIAL
 DONE(0.372829   SEC) : NON-LOCAL POTENTIAL
 START CHARGE      : atomic
 DONE(0.548873   SEC) : INIT POTENTIAL
 DONE(0.549207   SEC) : INIT OPTIMIZATION
Default type: double
nnode = 10
nlayer = 3
feg_net_F = 0.540933
 DONE(0.623425   SEC) : INIT KEDF
======================== Running OFDFT ========================
Iter        Etot(Ha)          Theta      PotNorm     deltaE(Ha)
0     -8.461509992519e-01   2.000e-01   1.099e-01   -8.462e-01  
1     -8.886219376876e-01   9.942e-02   7.818e-02   -4.247e-02  
2     -8.897127166734e-01   9.535e-03   1.500e-02   -1.091e-03  
3     -8.898441048324e-01   7.451e-03   2.823e-03   -1.314e-04  
4     -8.898455504677e-01   3.129e-04   1.908e-03   -1.446e-06  
5     -8.898461016865e-01   1.663e-04   1.121e-03   -5.512e-07  
6     -8.898467030220e-01   4.420e-04   3.451e-04   -6.013e-07  
7     -8.898467614204e-01   1.170e-04   3.784e-04   -5.840e-08  

  |CLASS_NAME---------|NAME---------------|TIME(Sec)-----|CALLS----|AVG------|PER%-------
                       total               344.74         21        16        1e+02     %
   Driver              driver_line         344.73         1         3.4e+02   1e+02     %
   PW_Basis            setuptransform      0.20874        1         0.21      0.061     %
   PW_Basis            recip2real          7.2223         3428      0.0021    2.1       %
   PW_Basis            gathers_scatterp    0.61413        3428      0.00018   0.18      %
   Potential           update_from_charge  10.766         172       0.063     3.1       %
   Potential           cal_v_eff           10.762         172       0.063     3.1       %
   H_Hartree_pw        v_hartree           0.84539        172       0.0049    0.25      %
   PW_Basis            real2recip          7.1158         3428      0.0021    2.1       %
   PW_Basis            gatherp_scatters    0.39468        3428      0.00012   0.11      %
   PotXC               cal_v_eff           9.8855         172       0.057     2.9       %
   XC_Functional       v_xc                171.28         86        2         50        %
   XC_Functional       v_xc_libxc          9.866          172       0.057     2.9       %
   ESolver_OF          Run                 344.12         1         3.4e+02   1e+02     %
   KEDF_vW             vw_potential        0.82986        171       0.0049    0.24      %
 ----------------------------------------------------------------------------------------

 START  Time  : Wed May  3 01:05:26 2023
 FINISH Time  : Wed May  3 01:11:11 2023
 TOTAL  Time  : 3.4e+02
 SEE INFORMATION IN : OUT.oftest/
