 *********************************************************
 *                                                       *
 *                  WELCOME TO ABACUS v3.0               *
 *                                                       *
 *            'Atomic-orbital Based Ab-initio            *
 *                  Computation at UStc'                 *
 *                                                       *
 *          Website: http://abacus.ustc.edu.cn/          *
 *                                                       *
 *********************************************************
 Wed Mar 22 11:42:11 2023
 MAKE THE DIR         : OUT.blpstest/
Notice: symbol 'al_locpsp' is not an element symbol!!!! set the covalent radius to be 0.
Notice: symbol 'P_locpsp' is not an element symbol!!!! set the covalent radius to be 0.
 UNIFORM GRID DIM     : 40 * 40 * 40
 UNIFORM GRID DIM(BIG): 40 * 40 * 40
func,idXC_GGA_X_PBE 101
func,idXC_GGA_C_PBE 130
 DONE(0.185022   SEC) : SETUP UNITCELL
 DONE(0.214848   SEC) : SYMMETRY
 DONE(0.373101   SEC) : INIT K-POINTS
 ---------------------------------------------------------
 Self-consistent calculations for electrons
 ---------------------------------------------------------
 SPIN    KPOINTS         PROCESSORS  
 1       256             1           
 ---------------------------------------------------------
 Use plane wave basis
 ---------------------------------------------------------
 ELEMENT NATOM       XC          
 Al      1           
 P       1           
 ---------------------------------------------------------
 Initial plane wave basis and FFT box
 ---------------------------------------------------------
 DONE(0.485542   SEC) : INIT PLANEWAVE
 MEMORY FOR PSI (MB)  : 92.707
 DONE(0.526979   SEC) : LOCAL POTENTIAL
 DONE(0.527014   SEC) : NON-LOCAL POTENTIAL
 DONE(0.527064   SEC) : INIT BASIS
 START CHARGE      : atomic
 DONE(0.616252   SEC) : INIT SCF
 ITER   ETOT(eV)       EDIFF(eV)      DRHO       TIME(s)    
 CG1    -2.274306e+02  0.000000e+00   3.903e+00  3.976e+01  
 CG2    -2.393871e+02  -1.195653e+01  5.171e-01  1.868e+01  
 CG3    -2.410397e+02  -1.652643e+00  1.719e-02  1.558e+01  
 CG4    -2.410693e+02  -2.958091e-02  6.408e-04  1.796e+01  
 CG5    -2.410729e+02  -3.561778e-03  2.134e-05  1.977e+01  
 CG6    -2.410729e+02  -7.484889e-05  1.843e-06  2.026e+01  
 CG7    -2.410729e+02  -4.786338e-06  6.890e-09  1.544e+01  
 CG8    -2.410729e+02  -2.253709e-07  1.002e-08  2.338e+01  
 CG9    -2.410729e+02  -4.556405e-09  8.707e-10  1.232e+01  

  |CLASS_NAME---------|NAME---------------|TIME(Sec)-----|CALLS----|AVG------|PER%-------
                       total               183.78         17        11        1e+02     %
   Driver              driver_line         183.77         1         1.8e+02   1e+02     %
   PW_Basis            setuptransform      0.16147        1         0.16      0.088     %
   ESolver_KS_PW       Run                 183.24         1         1.8e+02   1e+02     %
   Potential           update_from_charge  0.49412        10        0.049     0.27      %
   Potential           cal_v_eff           0.49251        10        0.049     0.27      %
   PW_Basis            real2recip          0.12181        98        0.0012    0.066     %
   PotXC               cal_v_eff           0.45785        10        0.046     0.25      %
   XC_Functional       v_xc                102.88         5         21        56        %
   XC_Functional       v_xc_libxc          0.45521        10        0.046     0.25      %
   HSolverPW           solve               182.62         9         20        99        %
   DiagoIterAssist     diagH_subspace      34.821         2304      0.015     19        %
   OperatorPW          hPsi                165.96         79039     0.0021    90        %
   Operator            EkineticPW          0.51112        79039     6.5e-06   0.28      %
   Operator            VeffPW              165.16         79039     0.0021    90        %
   PW_Basis_K          recip2real          90.697         106688    0.00085   49        %
   PW_Basis_K          gathers_scatterp    8.184          106688    7.7e-05   4.5       %
   PW_Basis_K          real2recip          72.922         97471     0.00075   40        %
   PW_Basis_K          gatherp_scatters    1.4639         97471     1.5e-05   0.8       %
   DiagoIterAssist     LAPACK_subspace     0.11632        2304      5e-05     0.063     %
   DiagoCG             diag_once           138.9          2304      0.06      76        %
   ElecStatePW         psiToRho            7.8607         9         0.87      4.3       %
 ----------------------------------------------------------------------------------------

 START  Time  : Wed Mar 22 11:42:11 2023
 FINISH Time  : Wed Mar 22 11:45:14 2023
 TOTAL  Time  : 1.8e+02
 SEE INFORMATION IN : OUT.blpstest/
