 *********************************************************
 *                                                       *
 *                  WELCOME TO ABACUS v3.0               *
 *                                                       *
 *            'Atomic-orbital Based Ab-initio            *
 *                  Computation at UStc'                 *
 *                                                       *
 *          Website: http://abacus.ustc.edu.cn/          *
 *                                                       *
 *********************************************************
 Mon Apr 17 14:43:51 2023
 MAKE THE DIR         : OUT.blpstest/
Notice: symbol 'al_locpsp' is not an element symbol!!!! set the covalent radius to be 0.
 UNIFORM GRID DIM     : 27 * 27 * 45
 UNIFORM GRID DIM(BIG): 27 * 27 * 45
func,idXC_GGA_X_PBE 101
func,idXC_GGA_C_PBE 130
 DONE(0.314319   SEC) : SETUP UNITCELL
 DONE(0.424209   SEC) : SYMMETRY
 DONE(0.48511    SEC) : INIT K-POINTS
 ---------------------------------------------------------
 Self-consistent calculations for electrons
 ---------------------------------------------------------
 SPIN    KPOINTS         PROCESSORS  
 1       133             1           
 ---------------------------------------------------------
 Use plane wave basis
 ---------------------------------------------------------
 ELEMENT NATOM       XC          
 Al      2           
 ---------------------------------------------------------
 Initial plane wave basis and FFT box
 ---------------------------------------------------------
 DONE(0.507235   SEC) : INIT BASIS
 DONE(0.507267   SEC) : INIT PHI
 DONE(0.935557   SEC) : LOCAL POTENTIAL
 DONE(0.935597   SEC) : NON-LOCAL POTENTIAL
 START CHARGE      : atomic
 DONE(1.514      SEC) : INIT POTENTIAL
 DONE(1.51415    SEC) : INIT OPTIMIZATION
 DONE(1.53225    SEC) : INIT KEDF
======================== Running OFDFT ========================
Iter        Etot(Ha)          Theta      PotNorm     deltaE(Ha)
0     -4.035622556200e+00   2.000e-01   2.121e-01   -4.036e+00  
1     -4.041980845861e+00   2.414e-02   2.344e-01   -6.358e-03  
2     -4.198856544650e+00   8.344e-02   8.630e-02   -1.569e-01  
3     -4.201401887240e+00   1.363e-02   6.902e-03   -2.545e-03  
4     -4.201428587391e+00   1.354e-03   2.477e-03   -2.670e-05  
5     -4.201432988450e+00   7.125e-04   2.108e-04   -4.401e-06  
6     -4.201433013549e+00   3.557e-05   4.067e-05   -2.510e-08  
7     -4.201433014518e+00   7.882e-06   1.942e-05   -9.687e-10  

  |CLASS_NAME---------|NAME---------------|TIME(Sec)-----|CALLS----|AVG------|PER%-------
                       total               24.664         21        1.2       1e+02     %
   Driver              driver_line         24.63          1         25        1e+02     %
   PW_Basis            setuptransform      0.25021        1         0.25      1         %
   ppcell_vl           init_vloc           0.4281         1         0.43      1.7       %
   Charge              atomic_rho          0.44601        1         0.45      1.8       %
   PW_Basis            recip2real          4.0143         1736      0.0023    16        %
   PW_Basis            gathers_scatterp    0.30444        1736      0.00018   1.2       %
   Potential           init_pot            0.12965        1         0.13      0.53      %
   Potential           update_from_charge  14.235         193       0.074     58        %
   Potential           cal_v_eff           14.215         193       0.074     58        %
   H_Hartree_pw        v_hartree           1.3446         193       0.007     5.5       %
   PW_Basis            real2recip          5.1056         2120      0.0024    21        %
   PW_Basis            gatherp_scatters    0.27501        2120      0.00013   1.1       %
   PotXC               cal_v_eff           12.829         193       0.066     52        %
   XC_Functional       v_xc                11.549         97        0.12      47        %
   XC_Functional       v_xc_libxc          12.732         193       0.066     52        %
   ESolver_OF          Run                 23.131         1         23        94        %
   KEDF_TF             tf_potential        1.5786         192       0.0082    6.4       %
   KEDF_WT             wt_potential        5.9091         192       0.031     24        %
   KEDF_vW             vw_potential        1.0377         192       0.0054    4.2       %
 ----------------------------------------------------------------------------------------

 START  Time  : Mon Apr 17 14:43:51 2023
 FINISH Time  : Mon Apr 17 14:44:16 2023
 TOTAL  Time  : 25
 SEE INFORMATION IN : OUT.blpstest/
