 *********************************************************
 *                                                       *
 *                  WELCOME TO ABACUS v3.0               *
 *                                                       *
 *            'Atomic-orbital Based Ab-initio            *
 *                  Computation at UStc'                 *
 *                                                       *
 *          Website: http://abacus.ustc.edu.cn/          *
 *                                                       *
 *********************************************************
 Fri Jan 12 14:59:27 2024
 MAKE THE DIR         : OUT.oftest/
Notice: symbol 'al_locpsp' is not an element symbol!!!! set the covalent radius to be 0.
Notice: symbol 'mg_locpsp' is not an element symbol!!!! set the covalent radius to be 0.
 UNIFORM GRID DIM     : 80 * 80 * 80
 UNIFORM GRID DIM(BIG): 80 * 80 * 80
func,idXC_GGA_X_PBE 101
func,idXC_GGA_C_PBE 130
 DONE(1.9482     SEC) : SETUP UNITCELL
 DONE(2.09916    SEC) : SYMMETRY
 DONE(2.11912    SEC) : INIT K-POINTS
 ---------------------------------------------------------
 Self-consistent calculations for electrons
 ---------------------------------------------------------
 SPIN    KPOINTS         PROCESSORS  
 1       504             1           
 ---------------------------------------------------------
 Use plane wave basis
 ---------------------------------------------------------
 ELEMENT NATOM       XC          
 Al      16          
 Mg      16          
 ---------------------------------------------------------
 Initial plane wave basis and FFT box
 ---------------------------------------------------------
 DONE(12.2018    SEC) : INIT BASIS
 DONE(12.2018    SEC) : INIT PHI
 DONE(12.7296    SEC) : LOCAL POTENTIAL
 DONE(12.7297    SEC) : NON-LOCAL POTENTIAL
 START CHARGE      : atomic
 DONE(16.8271    SEC) : INIT POTENTIAL
 DONE(16.8379    SEC) : INIT OPTIMIZATION
Default type: double
 DONE(16.9141    SEC) : INIT KEDF
======================== Running OFDFT ========================
Iter        Etot(Ha)          Theta      PotNorm     deltaE(Ha)
0     -4.422241170434e+01   2.000e-01   1.921e-01   -4.422e+01  
1     -4.455034244916e+01   5.082e-02   2.359e-01   -3.279e-01  
2     -4.760993914558e+01   1.177e-01   1.421e-01   -3.060e+00  
3     -4.778379977957e+01   2.331e-02   2.415e-02   -1.739e-01  
4     -4.778724728770e+01   2.634e-03   1.812e-03   -3.448e-03  
5     -4.778729927878e+01   5.616e-04   4.473e-04   -5.199e-05  
6     -4.778730180863e+01   1.210e-04   3.650e-05   -2.530e-06  
7     -4.778730182023e+01   6.518e-06   3.314e-06   -1.161e-08  
8     -4.778730182037e+01   7.770e-07   1.508e-06   -1.341e-10  
 ><><><><><><><><><><><><><><><><><><><><><><
 TOTAL-STRESS (KBAR):
 ><><><><><><><><><><><><><><><><><><><><><><
 -3.145e+01     8.370e-04      7.909e-02      
 8.370e-04      -3.103e+01     2.981e-01      
 7.909e-02      2.981e-01      -3.123e+01     
 TOTAL-PRESSURE: -3.124e+01 KBAR

  |CLASS_NAME---------|NAME---------------|TIME(Sec)-----|CALLS----|AVG------|PER%-------
                       total               1049.3         21        50        1e+02     %
   Driver              driver_line         1049.2         1         1e+03     1e+02     %
   PW_Basis            setuptransform      1.6025         1         1.6       0.15      %
   mymath              heapsort            0.2268         29002     7.8e-06   0.022     %
   PW_Basis            setup_struc_factor  10.082         1         10        0.96      %
   ppcell_vl           init_vloc           0.52748        1         0.53      0.05      %
   Charge              atomic_rho          0.73616        1         0.74      0.07      %
   PW_Basis            recip2real          320.76         2568      0.12      31        %
   PW_Basis            gathers_scatterp    52.545         2568      0.02      5         %
   Potential           init_pot            3.2972         1         3.3       0.31      %
   Potential           update_from_charge  588.37         197       3         56        %
   Potential           cal_fixed_v         0.16877        1         0.17      0.016     %
   PotLocal            cal_fixed_v         0.166          1         0.17      0.016     %
   Potential           cal_v_eff           588.2          197       3         56        %
   H_Hartree_pw        v_hartree           62.356         197       0.32      5.9       %
   PW_Basis            real2recip          287.21         2563      0.11      27        %
   PW_Basis            gatherp_scatters    36.131         2563      0.014     3.4       %
   PotXC               cal_v_eff           522.33         197       2.7       50        %
   XC_Functional       v_xc                497.71         99        5         47        %
   XC_Functional       v_xc_libxc          517.26         197       2.6       49        %
   ESolver_OF          Run                 997.7          1         1e+03     95        %
   KEDF_LKT            LKT_potential       328.43         196       1.7       31        %
   KEDF_vW             vw_potential        56.147         196       0.29      5.4       %
   Forces              cal_force_loc       10.094         1         10        0.96      %
   Forces              cal_force_ew        10.223         1         10        0.97      %
   OF_Stress_PW        cal_stress          13.036         1         13        1.2       %
   Stress_Func         stress_ewa          10.27          1         10        0.98      %
   Stress_Func         stress_gga          1.5889         1         1.6       0.15      %
   Stress_Func         stress_loc          1.1008         1         1.1       0.1       %
 ----------------------------------------------------------------------------------------

 START  Time  : Fri Jan 12 14:59:27 2024
 FINISH Time  : Fri Jan 12 15:16:56 2024
 TOTAL  Time  : 1e+03
 SEE INFORMATION IN : OUT.oftest/
