 *********************************************************
 *                                                       *
 *                  WELCOME TO ABACUS v3.0               *
 *                                                       *
 *            'Atomic-orbital Based Ab-initio            *
 *                  Computation at UStc'                 *
 *                                                       *
 *          Website: http://abacus.ustc.edu.cn/          *
 *                                                       *
 *********************************************************
 Tue May  2 12:45:52 2023
 MAKE THE DIR         : OUT.blpstest/
Notice: symbol 'al_locpsp' is not an element symbol!!!! set the covalent radius to be 0.
 UNIFORM GRID DIM     : 25 * 25 * 25
 UNIFORM GRID DIM(BIG): 25 * 25 * 25
func,idXC_GGA_X_PBE 101
func,idXC_GGA_C_PBE 130
 DONE(0.0798819  SEC) : SETUP UNITCELL
 DONE(0.135303   SEC) : SYMMETRY
 DONE(0.482265   SEC) : INIT K-POINTS
 ---------------------------------------------------------
 Self-consistent calculations for electrons
 ---------------------------------------------------------
 SPIN    KPOINTS         PROCESSORS  
 1       256             1           
 ---------------------------------------------------------
 Use plane wave basis
 ---------------------------------------------------------
 ELEMENT NATOM       XC          
 Al      1           
 ---------------------------------------------------------
 Initial plane wave basis and FFT box
 ---------------------------------------------------------
 DONE(0.483133   SEC) : INIT BASIS
 DONE(0.48316    SEC) : INIT PHI
 DONE(0.519047   SEC) : LOCAL POTENTIAL
 DONE(0.519081   SEC) : NON-LOCAL POTENTIAL
 START CHARGE      : atomic
 DONE(0.575246   SEC) : INIT POTENTIAL
 DONE(0.575295   SEC) : INIT OPTIMIZATION
Default type: double
 DONE(0.576043   SEC) : INIT KEDF
======================== Running OFDFT ========================
Iter        Etot(Ha)          Theta      PotNorm     deltaE(Ha)
0     -1.998268644302e+00   2.000e-01   2.474e-01   -1.998e+00  
1     -2.026675441958e+00   5.580e-02   3.790e-01   -2.841e-02  
2     -2.092381003318e+00   7.421e-02   1.680e-01   -6.571e-02  
3     -2.094730876480e+00   8.159e-03   5.258e-02   -2.350e-03  
4     -2.094993006392e+00   3.555e-03   5.884e-03   -2.621e-04  
5     -2.094997952163e+00   8.145e-04   4.694e-04   -4.946e-06  
6     -2.094997981686e+00   5.319e-05   3.934e-05   -2.952e-08  
7     -2.094997982104e+00   7.653e-06   3.072e-06   -4.185e-10  

  |CLASS_NAME---------|NAME---------------|TIME(Sec)-----|CALLS----|AVG------|PER%-------
                       total               10.019         21        0.48      1e+02     %
   Driver              driver_line         10.012         1         10        1e+02     %
   PW_Basis            recip2real          1.7874         2543      0.0007    18        %
   PW_Basis            gathers_scatterp    0.20623        2543      8.1e-05   2.1       %
   Potential           update_from_charge  5.5431         196       0.028     55        %
   Potential           cal_v_eff           5.5412         196       0.028     55        %
   H_Hartree_pw        v_hartree           0.40803        196       0.0021    4.1       %
   PW_Basis            real2recip          1.9318         2543      0.00076   19        %
   PW_Basis            gatherp_scatters    0.2188         2543      8.6e-05   2.2       %
   PotXC               cal_v_eff           5.09           196       0.026     51        %
   XC_Functional       v_xc                4.6976         98        0.048     47        %
   XC_Functional       v_xc_libxc          5.0635         196       0.026     51        %
   ESolver_OF          Run                 9.4414         1         9.4       94        %
   KEDF_LKT            LKT_potential       3.2947         195       0.017     33        %
   KEDF_vW             vw_potential        0.3577         195       0.0018    3.6       %
 ----------------------------------------------------------------------------------------

 START  Time  : Tue May  2 12:45:52 2023
 FINISH Time  : Tue May  2 12:46:02 2023
 TOTAL  Time  : 10
 SEE INFORMATION IN : OUT.blpstest/
