 *********************************************************
 *                                                       *
 *                  WELCOME TO ABACUS v3.0               *
 *                                                       *
 *            'Atomic-orbital Based Ab-initio            *
 *                  Computation at UStc'                 *
 *                                                       *
 *          Website: http://abacus.ustc.edu.cn/          *
 *                                                       *
 *********************************************************
 Wed Dec 28 16:45:14 2022
 MAKE THE DIR         : OUT.blpstest/
Notice: symbol 'mg_locpsp' is not an element symbol!!!! set the covalent radius to be 0.
Notice: symbol 'al_locpsp' is not an element symbol!!!! set the covalent radius to be 0.
 UNIFORM GRID DIM     : 36 * 36 * 36
 UNIFORM GRID DIM(BIG): 36 * 36 * 36
func,idXC_GGA_X_PBE 101
func,idXC_GGA_C_PBE 130
 DONE(0.180981   SEC) : SETUP UNITCELL
 DONE(0.213109   SEC) : SYMMETRY
 DONE(0.37213    SEC) : INIT K-POINTS
 ---------------------------------------------------------
 Self-consistent calculations for electrons
 ---------------------------------------------------------
 SPIN    KPOINTS         PROCESSORS  
 1       286             1           
 ---------------------------------------------------------
 Use plane wave basis
 ---------------------------------------------------------
 ELEMENT NATOM       XC          
 Mg      1           
 Al      3           
 ---------------------------------------------------------
 Initial plane wave basis and FFT box
 ---------------------------------------------------------
 DONE(0.497625   SEC) : INIT PLANEWAVE
 MEMORY FOR PSI (MB)  : 96.9727
 DONE(0.554141   SEC) : LOCAL POTENTIAL
 DONE(0.554174   SEC) : NON-LOCAL POTENTIAL
 DONE(0.554232   SEC) : INIT BASIS
 START CHARGE      : atomic
 DONE(0.626197   SEC) : INIT SCF
 ITER   ETOT(eV)       EDIFF(eV)      DRHO       TIME(s)    
 CG1    -1.940353e+02  0.000000e+00   5.409e-01  3.606e+01  
 CG2    -1.957304e+02  -1.695093e+00  4.946e-02  1.446e+01  
 CG3    -1.958765e+02  -1.461264e-01  9.239e-03  1.771e+01  
 CG4    -1.959045e+02  -2.798676e-02  5.520e-05  1.648e+01  
 CG5    -1.959054e+02  -8.483347e-04  1.684e-06  2.280e+01  
 CG6    -1.959054e+02  -7.997497e-06  4.395e-08  1.781e+01  
 CG7    -1.959054e+02  -2.628641e-07  4.123e-09  1.970e+01  
 CG8    -1.959054e+02  -1.996629e-08  1.328e-09  1.801e+01  
 CG9    -1.959054e+02  -3.814913e-09  4.557e-12  1.559e+01  

  |CLASS_NAME---------|NAME---------------|TIME(Sec)-----|CALLS----|AVG------|PER%-------
                       total               179.28         17        11        1e+02     %
   Driver              driver_line         179.27         1         1.8e+02   1e+02     %
   PW_Basis            setuptransform      0.15713        1         0.16      0.088     %
   ESolver_KS_PW       Run                 178.71         1         1.8e+02   1e+02     %
   Potential           update_from_charge  0.36252        10        0.036     0.2       %
   Potential           cal_v_eff           0.36114        10        0.036     0.2       %
   PotXC               cal_v_eff           0.33593        10        0.034     0.19      %
   XC_Functional       v_xc                111.88         5         22        62        %
   XC_Functional       v_xc_libxc          0.33346        10        0.033     0.19      %
   HSolverPW           solve               178.24         9         20        99        %
   DiagoIterAssist     diagH_subspace      32.595         2574      0.013     18        %
   OperatorPW          hPsi                155.68         97373     0.0016    87        %
   Operator            EkineticPW          0.60769        97373     6.2e-06   0.34      %
   Operator            VeffPW              154.75         97373     0.0016    86        %
   PW_Basis_K          recip2real          91.594         133240    0.00069   51        %
   PW_Basis_K          gathers_scatterp    7.8612         133240    5.9e-05   4.4       %
   PW_Basis_K          real2recip          66.33          117965    0.00056   37        %
   PW_Basis_K          gatherp_scatters    1.356          117965    1.1e-05   0.76      %
   DiagoIterAssist     LAPACK_subspace     0.13039        2574      5.1e-05   0.073     %
   DiagoCG             diag_once           132.19         2574      0.051     74        %
   ElecStatePW         psiToRho            12.306         9         1.4       6.9       %
 ----------------------------------------------------------------------------------------

 START  Time  : Wed Dec 28 16:45:14 2022
 FINISH Time  : Wed Dec 28 16:48:13 2022
 TOTAL  Time  : 1.8e+02
 SEE INFORMATION IN : OUT.blpstest/
