 *********************************************************
 *                                                       *
 *                  WELCOME TO ABACUS v3.0               *
 *                                                       *
 *            'Atomic-orbital Based Ab-initio            *
 *                  Computation at UStc'                 *
 *                                                       *
 *          Website: http://abacus.ustc.edu.cn/          *
 *                                                       *
 *********************************************************
 Mon Jul 24 15:40:53 2023
 MAKE THE DIR         : OUT.blpstest/
Notice: symbol 'In_locpsp' is not an element symbol!!!! set the covalent radius to be 0.
Notice: symbol 'Sb_locpsp' is not an element symbol!!!! set the covalent radius to be 0.
 UNIFORM GRID DIM     : 45 * 45 * 45
 UNIFORM GRID DIM(BIG): 45 * 45 * 45
func,idXC_GGA_X_PBE 101
func,idXC_GGA_C_PBE 130
 DONE(0.167031   SEC) : SETUP UNITCELL
 DONE(0.198492   SEC) : SYMMETRY
 DONE(0.366129   SEC) : INIT K-POINTS
 ---------------------------------------------------------
 Self-consistent calculations for electrons
 ---------------------------------------------------------
 SPIN    KPOINTS         PROCESSORS  
 1       256             1           
 ---------------------------------------------------------
 Use plane wave basis
 ---------------------------------------------------------
 ELEMENT NATOM       XC          
 In      1           
 Sb      1           
 ---------------------------------------------------------
 Initial plane wave basis and FFT box
 ---------------------------------------------------------
 DONE(0.522014   SEC) : INIT PLANEWAVE
 MEMORY FOR PSI (MB)  : 136.828
 DONE(0.581432   SEC) : LOCAL POTENTIAL
 DONE(0.581468   SEC) : NON-LOCAL POTENTIAL
 DONE(0.581531   SEC) : INIT BASIS
 START CHARGE      : atomic
 DONE(0.744159   SEC) : INIT SCF
 ITER   ETOT(eV)       EDIFF(eV)      DRHO       TIME(s)    
 CG1    -1.946181e+02  0.000000e+00   2.114e+00  9.424e+01  
 CG2    -1.999679e+02  -5.349785e+00  3.251e-01  4.086e+01  
 CG3    -2.011936e+02  -1.225719e+00  5.322e-02  3.928e+01  
 CG4    -2.013071e+02  -1.134931e-01  3.057e-04  3.402e+01  
 CG5    -2.013129e+02  -5.805287e-03  1.084e-04  5.957e+01  
 CG6    -2.013132e+02  -2.303423e-04  7.495e-07  3.368e+01  
 CG7    -2.013132e+02  -1.133142e-05  3.708e-08  5.891e+01  
 CG8    -2.013132e+02  8.243782e-08   2.741e-08  4.258e+01  
 CG9    -2.013132e+02  -8.308344e-08  6.083e-10  3.313e+01  

  |CLASS_NAME---------|NAME---------------|TIME(Sec)-----|CALLS----|AVG------|PER%-------
                       total               437.03         17        26        1e+02     %
   Driver              driver_line         437.03         1         4.4e+02   1e+02     %
   PW_Basis            setuptransform      0.14342        1         0.14      0.033     %
   PW_Basis_K          setuptransform      0.10755        1         0.11      0.025     %
   ESolver_KS_PW       Run                 436.44         1         4.4e+02   1e+02     %
   PW_Basis            recip2real          0.16876        62        0.0027    0.039     %
   Potential           init_pot            0.10364        1         0.1       0.024     %
   Potential           update_from_charge  0.96938        10        0.097     0.22      %
   Potential           cal_v_eff           0.96685        10        0.097     0.22      %
   PW_Basis            real2recip          0.25678        98        0.0026    0.059     %
   PotXC               cal_v_eff           0.89601        10        0.09      0.21      %
   XC_Functional       v_xc                285.18         5         57        65        %
   XC_Functional       v_xc_libxc          0.89053        10        0.089     0.2       %
   HSolverPW           solve               435.21         9         48        1e+02     %
   DiagoIterAssist     diagH_subspace      79.197         2304      0.034     18        %
   OperatorPW          hPsi                389.73         80197     0.0049    89        %
   Operator            EkineticPW          1.655          80197     2.1e-05   0.38      %
   Operator            VeffPW              387.37         80197     0.0048    89        %
   PW_Basis_K          recip2real          202.49         107845    0.0019    46        %
   PW_Basis_K          gathers_scatterp    23.122         107845    0.00021   5.3       %
   PW_Basis_K          real2recip          157.14         98629     0.0016    36        %
   PW_Basis_K          gatherp_scatters    6.0106         98629     6.1e-05   1.4       %
   DiagoIterAssist     LAPACK_subspace     0.21457        2304      9.3e-05   0.049     %
   DiagoCG             diag_once           333.78         2304      0.14      76        %
   ElecStatePW         psiToRho            20.425         9         2.3       4.7       %
 ----------------------------------------------------------------------------------------

 START  Time  : Mon Jul 24 15:40:53 2023
 FINISH Time  : Mon Jul 24 15:48:10 2023
 TOTAL  Time  : 4.4e+02
 SEE INFORMATION IN : OUT.blpstest/
