 *********************************************************
 *                                                       *
 *                  WELCOME TO ABACUS v3.0               *
 *                                                       *
 *            'Atomic-orbital Based Ab-initio            *
 *                  Computation at UStc'                 *
 *                                                       *
 *          Website: http://abacus.ustc.edu.cn/          *
 *                                                       *
 *********************************************************
 Wed Apr 26 05:36:26 2023
 MAKE THE DIR         : OUT.oftest/
Notice: symbol 'mg_locpsp' is not an element symbol!!!! set the covalent radius to be 0.
 UNIFORM GRID DIM     : 45 * 45 * 45
 UNIFORM GRID DIM(BIG): 45 * 45 * 45
func,idXC_GGA_X_PBE 101
func,idXC_GGA_C_PBE 130
 DONE(0.28663    SEC) : SETUP UNITCELL
 DONE(0.345884   SEC) : SYMMETRY
 DONE(0.346175   SEC) : INIT K-POINTS
 ---------------------------------------------------------
 Self-consistent calculations for electrons
 ---------------------------------------------------------
 SPIN    KPOINTS         PROCESSORS  
 1       1               1           
 ---------------------------------------------------------
 Use plane wave basis
 ---------------------------------------------------------
 ELEMENT NATOM       XC          
 Mg      1           
 ---------------------------------------------------------
 Initial plane wave basis and FFT box
 ---------------------------------------------------------
 DONE(0.350546   SEC) : INIT BASIS
 DONE(0.350584   SEC) : INIT PHI
 DONE(0.431623   SEC) : LOCAL POTENTIAL
 DONE(0.431668   SEC) : NON-LOCAL POTENTIAL
 START CHARGE      : atomic
 DONE(0.696062   SEC) : INIT POTENTIAL
 DONE(0.696567   SEC) : INIT OPTIMIZATION
Default type: double
nnode = 10
nlayer = 3
feg_net_F = 0.540933
 DONE(0.790724   SEC) : INIT KEDF
======================== Running OFDFT ========================
Iter        Etot(Ha)          Theta      PotNorm     deltaE(Ha)
0     -8.342881810640e-01   2.000e-01   8.697e-02   -8.343e-01  
1     -8.718324437034e-01   9.863e-02   6.651e-02   -3.754e-02  
2     -8.737136247806e-01   2.224e-02   3.017e-02   -1.881e-03  
3     -8.739059686936e-01   3.512e-03   1.244e-02   -1.923e-04  
4     -8.741174002138e-01   1.296e-02   9.875e-04   -2.114e-04  
5     -8.741179000885e-01   3.160e-04   2.310e-04   -4.999e-07  
6     -8.741179171408e-01   4.394e-05   1.626e-04   -1.705e-08  

  |CLASS_NAME---------|NAME---------------|TIME(Sec)-----|CALLS----|AVG------|PER%-------
                       total               638.52         21        30        1e+02     %
   Driver              driver_line         638.52         1         6.4e+02   1e+02     %
   PW_Basis            setuptransform      0.24765        1         0.25      0.039     %
   PW_Basis            recip2real          15.69          3448      0.0046    2.5       %
   PW_Basis            gathers_scatterp    1.1769         3448      0.00034   0.18      %
   Potential           init_pot            0.16391        1         0.16      0.026     %
   Potential           update_from_charge  21.264         173       0.12      3.3       %
   Potential           cal_v_eff           21.256         173       0.12      3.3       %
   H_Hartree_pw        v_hartree           1.7845         173       0.01      0.28      %
   PW_Basis            real2recip          15.315         3448      0.0044    2.4       %
   PW_Basis            gatherp_scatters    0.74408        3448      0.00022   0.12      %
   PotXC               cal_v_eff           19.408         173       0.11      3         %
   XC_Functional       v_xc                316.41         87        3.6       50        %
   XC_Functional       v_xc_libxc          19.382         173       0.11      3         %
   ESolver_OF          Run                 637.73         1         6.4e+02   1e+02     %
   KEDF_vW             vw_potential        1.7242         172       0.01      0.27      %
 ----------------------------------------------------------------------------------------

 START  Time  : Wed Apr 26 05:36:26 2023
 FINISH Time  : Wed Apr 26 05:47:05 2023
 TOTAL  Time  : 6.4e+02
 SEE INFORMATION IN : OUT.oftest/
