                                                                                     
                             WELCOME TO ABACUS v3.0                                  
                                                                                     
               'Atomic-orbital Based Ab-initio Computation at UStc'                  
                                                                                     
                     Website: http://abacus.ustc.edu.cn/                             
                                                                                     
    Version: Parallel, in development
    Processor Number is 1
    Start Time is Mon May 15 13:21:34 2023
                                                                                     
 ------------------------------------------------------------------------------------

 READING GENERAL INFORMATION
                           global_out_dir = OUT.oftest/
                           global_in_card = INPUT
                               pseudo_dir = 
                              orbital_dir = 
                                    DRANK = 1
                                    DSIZE = 1
                                   DCOLOR = 1
                                    GRANK = 1
                                    GSIZE = 1
 The esolver type has been set to : ofdft




 >>>>>>>>>>>>>>>>>>>>>>>>>>>>>>>>>>>>>>>>>>>>>>>>>>>>>>>>>>>>>>>>>>>>>>
 |                                                                    |
 | Reading atom information in unitcell:                              |
 | From the input file and the structure file we know the number of   |
 | different elments in this unitcell, then we list the detail        |
 | information for each element, especially the zeta and polar atomic |
 | orbital number for each element. The total atom number is counted. |
 | We calculate the nearest atom distance for each atom and show the  |
 | Cartesian and Direct coordinates for each atom. We list the file   |
 | address for atomic orbitals. The volume and the lattice vectors    |
 | in real and reciprocal space is also shown.                        |
 |                                                                    |
 <<<<<<<<<<<<<<<<<<<<<<<<<<<<<<<<<<<<<<<<<<<<<<<<<<<<<<<<<<<<<<<<<<<<<<




 READING UNITCELL INFORMATION
                                    ntype = 2
                 atom label for species 1 = Li
                 atom label for species 2 = Al
                  lattice constant (Bohr) = 1.88973
              lattice constant (Angstrom) = 1

 READING ATOM TYPE 1
                               atom label = Li
                      L=0, number of zeta = 1
                      L=1, number of zeta = 1
                      L=2, number of zeta = 1
             number of atom for this type = 6
                      start magnetization = FALSE
                      start magnetization = FALSE
                      start magnetization = FALSE
                      start magnetization = FALSE
                      start magnetization = FALSE
                      start magnetization = FALSE

 READING ATOM TYPE 2
                               atom label = Al
                      L=0, number of zeta = 1
                      L=1, number of zeta = 1
                      L=2, number of zeta = 1
             number of atom for this type = 2
                      start magnetization = FALSE
                      start magnetization = FALSE

                        TOTAL ATOM NUMBER = 8

 DIRECT COORDINATES
         atom                   x                   y                   z                 mag                  vx                  vy                  vz
     taud_Li1                   0                 0.5                0.25                   0                   0                   0                   0
     taud_Li2                 0.5                   0                0.25                   0                   0                   0                   0
     taud_Li3                 0.5                 0.5                   0                   0                   0                   0                   0
     taud_Li4                 0.5                   0                0.75                   0                   0                   0                   0
     taud_Li5                   0                 0.5                0.75                   0                   0                   0                   0
     taud_Li6                   0                   0                 0.5                   0                   0                   0                   0
     taud_Al1                   0                   0                   0                   0                   0                   0                   0
     taud_Al2                 0.5                 0.5                 0.5                   0                   0                   0                   0


                          Volume (Bohr^3) = 898.002
                             Volume (A^3) = 133.07

 Lattice vectors: (Cartesian coordinate: in unit of a_0)
             +3.90302                  +0                  +0
                   +0            +3.90302                  +0
                   +0                  +0            +8.73531
 Reciprocal vectors: (Cartesian coordinate: in unit of 2 pi/a_0)
            +0.256212                  -0                  +0
                   -0           +0.256212                  -0
                   +0                  -0           +0.114478




 >>>>>>>>>>>>>>>>>>>>>>>>>>>>>>>>>>>>>>>>>>>>>>>>>>>>>>>>>>>>>>>>>>>>>>
 |                                                                    |
 | Reading pseudopotentials files:                                    |
 | The pseudopotential file is in UPF format. The 'NC' indicates that |
 | the type of pseudopotential is 'norm conserving'. Functional of    |
 | exchange and correlation is decided by 4 given parameters in UPF   |
 | file.  We also read in the 'core correction' if there exists.      |
 | Also we can read the valence electrons number and the maximal      |
 | angular momentum used in this pseudopotential. We also read in the |
 | trail wave function, trail atomic density and local-pseudopotential|
 | on logrithmic grid. The non-local pseudopotential projector is also|
 | read in if there is any.                                           |
 |                                                                    |
 <<<<<<<<<<<<<<<<<<<<<<<<<<<<<<<<<<<<<<<<<<<<<<<<<<<<<<<<<<<<<<<<<<<<<<




                PAO radial cut off (Bohr) = 16

 Read in pseudopotential file is li.gga.psp.1
                     pseudopotential type = 
          exchange-correlation functional = XC_GGA_X_PBE+XC_GGA_C_PBE
                 nonlocal core correction = 0
                        valence electrons = 1
                                     lmax = 0
                           number of zeta = 0
                     number of projectors = 0
                PAO radial cut off (Bohr) = 16

 Read in pseudopotential file is al.gga.psp
                     pseudopotential type = 
          exchange-correlation functional = XC_GGA_X_PBE+XC_GGA_C_PBE
                 nonlocal core correction = 0
                        valence electrons = 3
                                     lmax = 0
                           number of zeta = 0
                     number of projectors = 0
Notice: symbol 'Li_locpsp' is not an element symbol!!!! set the covalent radius to be 0.
Notice: symbol 'al_locpsp' is not an element symbol!!!! set the covalent radius to be 0.
     initial pseudo atomic orbital number = 0
                                   NLOCAL = 72




 >>>>>>>>>>>>>>>>>>>>>>>>>>>>>>>>>>>>>>>>>>>>>>>>>>>>>>>>>>>>>>>>>>>>>>
 |                                                                    |
 | Setup plane waves of charge/potential:                             |
 | Use the energy cutoff and the lattice vectors to generate the      |
 | dimensions of FFT grid. The number of FFT grid on each processor   |
 | is 'nrxx'. The number of plane wave basis in reciprocal space is   |
 | different for charege/potential and wave functions. We also set    |
 | the 'sticks' for the parallel of FFT. The number of plane waves    |
 | is 'npw' in each processor.                                        |
 <<<<<<<<<<<<<<<<<<<<<<<<<<<<<<<<<<<<<<<<<<<<<<<<<<<<<<<<<<<<<<<<<<<<<<





 SETUP THE PLANE WAVE BASIS
 energy cutoff for charge/potential (unit:Ry) = 235.196
          [fft grid for charge/potential] = 40, 40, 81
                      [fft grid division] = 1, 1, 1
      [big fft grid for charge/potential] = 40, 40, 81
                                     nbxx = 129600
                                     nrxx = 129600

 SETUP PLANE WAVES FOR CHARGE/POTENTIAL
                    number of plane waves = 129600
                         number of sticks = 1600

 PARALLEL PW FOR CHARGE/POTENTIAL
     PROC   COLUMNS(POT)             PW
        1           1600         129600
 --------------- sum -------------------
        1           1600         129600
                            number of |g| = 8118
                                  max |g| = 73.4838
                                  min |g| = 0

 SETUP THE ELECTRONS NUMBER
            electron number of element Li = 1
      total electron number of element Li = 6
            electron number of element Al = 3
      total electron number of element Al = 6
            AUTOSET number of electrons:  = 12
 DONE : SETUP UNITCELL Time : 1.34735 (SEC)





 >>>>>>>>>>>>>>>>>>>>>>>>>>>>>>>>>>>>>>>>>>>>>>>>>>>>>>>>>>>>>>>>>>>>>>
 |                                                                    |
 | Doing symmetry analysis:                                           |
 | We calculate the norm of 3 vectors and the angles between them,    |
 | the type of Bravais lattice is given. We can judge if the unticell |
 | is a primitive cell. Finally we give the point group operation for |
 | this unitcell. We we use the point group operations to do symmetry |
 | analysis on given k-point mesh and the charge density.             |
 |                                                                    |
 <<<<<<<<<<<<<<<<<<<<<<<<<<<<<<<<<<<<<<<<<<<<<<<<<<<<<<<<<<<<<<<<<<<<<<




 LATTICE VECTORS: (CARTESIAN COORDINATE: IN UNIT OF A0)
             +3.90302                  +0                  +0
                   +0            +3.90302                  +0
                   +0                  +0            +8.73531
                       right hand lattice = 1
                                   NORM_A = 3.90302
                                   NORM_B = 3.90302
                                   NORM_C = 8.73531
                           ALPHA (DEGREE) = 90
                           BETA  (DEGREE) = 90
                           GAMMA (DEGREE) = 90
                             BRAVAIS TYPE = 5
                     BRAVAIS LATTICE NAME = 05. Tetrogonal P (simple)
                                    IBRAV = 5
                                  BRAVAIS = SIMPLE TETROGONAL CELL
                       LATTICE CONSTANT A = 3.90302
                                C/A RATIO = 2.23809
                                    ibrav = 5
                        ROTATION MATRICES = 16
              PURE POINT GROUP OPERATIONS = 16
                   SPACE GROUP OPERATIONS = 16
                              POINT GROUP = D_4h
Warning : If the optimal symmetric configuration is not the input configuration, 
you have to manually change configurations, ABACUS would only calculate the input structure.
 DONE : SYMMETRY Time : 1.41175 (SEC)





 >>>>>>>>>>>>>>>>>>>>>>>>>>>>>>>>>>>>>>>>>>>>>>>>>>>>>>>>>>>>>>>>>>>>>>
 |                                                                    |
 | Setup K-points                                                     |
 | We setup the k-points according to input parameters.               |
 | The reduced k-points are set according to symmetry operations.     |
 | We treat the spin as another set of k-points.                      |
 |                                                                    |
 <<<<<<<<<<<<<<<<<<<<<<<<<<<<<<<<<<<<<<<<<<<<<<<<<<<<<<<<<<<<<<<<<<<<<<





 SETUP K-POINTS
                                    nspin = 1
                   Input type of k points = Monkhorst-Pack(Gamma)
                                   nkstot = 1
                               nkstot_ibz = 1
      IBZ             DirectX             DirectY             DirectZ              Weight    ibz2bz
        1                   0                   0                   0                   1         0
                               nkstot now = 1

  KPOINTS            DIRECT_X            DIRECT_Y            DIRECT_Z              WEIGHT
        1                   0                   0                   0                   1

           k-point number in this process = 1
       minimum distributed K point number = 1

  KPOINTS         CARTESIAN_X         CARTESIAN_Y         CARTESIAN_Z              WEIGHT
        1                   0                   0                   0                   2

  KPOINTS            DIRECT_X            DIRECT_Y            DIRECT_Z              WEIGHT
        1                   0                   0                   0                   2
 DONE : INIT K-POINTS Time : 1.42087 (SEC)

 DONE : INIT BASIS Time : 2.05269 (SEC)

 DONE : INIT PHI Time : 2.05338 (SEC)


 SETUP NONLOCAL PSEUDOPOTENTIALS IN PLANE WAVE BASIS
 Li non-local projectors:
 Al non-local projectors:
      TOTAL NUMBER OF NONLOCAL PROJECTORS = 0

 nhm = 0, not allocate some matrix. DONE : LOCAL POTENTIAL Time : 3.59817 (SEC)


 Init Non-Local PseudoPotential table : 
 Init Non-Local-Pseudopotential done.
 DONE : NON-LOCAL POTENTIAL Time : 3.6007 (SEC)

Successful completion of Potential's registration : local
Successful completion of Potential's registration : hartree
Successful completion of Potential's registration : xc
                                 init_chg = atomic
 DONE : INIT POTENTIAL Time : 6.00172 (SEC)

 DONE : INIT OPTIMIZATION Time : 6.00318 (SEC)

 DONE : INIT KEDF Time : 6.02265 (SEC)


 charge density convergence is achieved
 final etot is -161.378 eV



 ><><><><><><><><><><><><><><><><><><><><><><

    TOTAL-FORCE (eV/Angstrom)

 ><><><><><><><><><><><><><><><><><><><><><><

     atom              x              y              z
      Li1              0              0    +0.00009833
      Li2              0              0    +0.00009833
      Li3              0              0              0
      Li4              0              0    -0.00009833
      Li5              0              0    -0.00009833
      Li6              0              0              0
      Al1              0              0              0
      Al2              0              0              0


 ><><><><><><><><><><><><><><><><><><><><><><

 TOTAL-STRESS (KBAR)

 ><><><><><><><><><><><><><><><><><><><><><><

      -47.110237      +0.000000      +0.000000
       +0.000000     -47.110237      +0.000000
       +0.000000      +0.000000     -77.313592
 TOTAL-PRESSURE: -57.178022 KBAR


 --------------------------------------------
 !FINAL_ETOT_IS -161.3777264590320044 eV
 --------------------------------------------






  |CLASS_NAME---------|NAME---------------|TIME(Sec)-----|CALLS----|AVG------|PER%-------
                                      total     +178.47288        21     +8.50   +100.00%
                 Driver         driver_line     +178.40299         1   +178.40    +99.96%
               PW_Basis      setuptransform       +1.18793         1     +1.19     +0.67%
               PW_Basis  setup_struc_factor       +0.63134         1     +0.63     +0.35%
              ppcell_vl           init_vloc       +1.54410         1     +1.54     +0.87%
                 Charge          atomic_rho       +1.59402         1     +1.59     +0.89%
               PW_Basis          recip2real      +48.17713      2152     +0.02    +26.99%
               PW_Basis    gathers_scatterp       +7.74497      2152     +0.00     +4.34%
              Potential            init_pot       +0.78136         1     +0.78     +0.44%
              Potential  update_from_charge     +100.19133       165     +0.61    +56.14%
              Potential           cal_v_eff     +100.14928       165     +0.61    +56.11%
           H_Hartree_pw           v_hartree       +9.96158       165     +0.06     +5.58%
               PW_Basis          real2recip      +45.33788      2147     +0.02    +25.40%
               PW_Basis    gatherp_scatters       +5.50397      2147     +0.00     +3.08%
                  PotXC           cal_v_eff      +89.66802       165     +0.54    +50.24%
          XC_Functional                v_xc      +81.91804        83     +0.99    +45.90%
          XC_Functional          v_xc_libxc      +88.67553       165     +0.54    +49.69%
             ESolver_OF                 Run     +166.76683         1   +166.77    +93.44%
               KEDF_LKT       LKT_potential      +53.98602       164     +0.33    +30.25%
                KEDF_vW        vw_potential       +8.86639       164     +0.05     +4.97%
                 Forces       cal_force_loc       +0.63709         1     +0.64     +0.36%
                 Forces        cal_force_ew       +0.58421         1     +0.58     +0.33%
           OF_Stress_PW          cal_stress       +4.07228         1     +4.07     +2.28%
            Stress_Func          stress_ewa       +0.58677         1     +0.59     +0.33%
            Stress_Func          stress_gga       +0.47397         1     +0.47     +0.27%
            Stress_Func          stress_loc       +2.99306         1     +2.99     +1.68%
 ----------------------------------------------------------------------------------------

 CLASS_NAME---------|NAME---------------|MEMORY(MB)--------
                                         +13.8823
             PW_Basis           struc_fac        +3.9551
 ----------------------------------------------------------

 Start  Time  : Mon May 15 13:21:34 2023
 Finish Time  : Mon May 15 13:24:32 2023
 Total  Time  : 0 h 2 mins 58 secs 
