 *********************************************************
 *                                                       *
 *                  WELCOME TO ABACUS v3.0               *
 *                                                       *
 *            'Atomic-orbital Based Ab-initio            *
 *                  Computation at UStc'                 *
 *                                                       *
 *          Website: http://abacus.ustc.edu.cn/          *
 *                                                       *
 *********************************************************
 Tue May  2 12:46:29 2023
 MAKE THE DIR         : OUT.blpstest/
Notice: symbol 'al_locpsp' is not an element symbol!!!! set the covalent radius to be 0.
 UNIFORM GRID DIM     : 27 * 27 * 27
 UNIFORM GRID DIM(BIG): 27 * 27 * 27
func,idXC_GGA_X_PBE 101
func,idXC_GGA_C_PBE 130
 DONE(0.112538   SEC) : SETUP UNITCELL
 DONE(0.167582   SEC) : SYMMETRY
 DONE(0.525693   SEC) : INIT K-POINTS
 ---------------------------------------------------------
 Self-consistent calculations for electrons
 ---------------------------------------------------------
 SPIN    KPOINTS         PROCESSORS  
 1       256             1           
 ---------------------------------------------------------
 Use plane wave basis
 ---------------------------------------------------------
 ELEMENT NATOM       XC          
 Al      1           
 ---------------------------------------------------------
 Initial plane wave basis and FFT box
 ---------------------------------------------------------
 DONE(0.526771   SEC) : INIT BASIS
 DONE(0.526798   SEC) : INIT PHI
 DONE(0.566965   SEC) : LOCAL POTENTIAL
 DONE(0.567005   SEC) : NON-LOCAL POTENTIAL
 START CHARGE      : atomic
 DONE(0.638562   SEC) : INIT POTENTIAL
 DONE(0.638616   SEC) : INIT OPTIMIZATION
Default type: double
 DONE(0.639492   SEC) : INIT KEDF
======================== Running OFDFT ========================
Iter        Etot(Ha)          Theta      PotNorm     deltaE(Ha)
0     -2.021033276259e+00   2.000e-01   2.020e-01   -2.021e+00  
1     -2.021728395317e+00   9.954e-03   2.084e-01   -6.951e-04  
2     -2.036851856268e+00   4.631e-02   2.864e-01   -1.512e-02  
3     -2.102266847378e+00   7.640e-02   1.141e-01   -6.541e-02  
4     -2.105623839605e+00   9.830e-03   1.253e-02   -3.357e-03  
5     -2.105664855528e+00   2.139e-03   5.799e-03   -4.102e-05  
6     -2.105670320613e+00   5.009e-04   2.107e-03   -5.465e-06  
7     -2.105672280334e+00   6.339e-04   1.652e-04   -1.960e-06  
8     -2.105672290476e+00   3.746e-05   1.491e-05   -1.014e-08  
9     -2.105672290546e+00   2.089e-06   6.563e-06   -6.967e-11  

  |CLASS_NAME---------|NAME---------------|TIME(Sec)-----|CALLS----|AVG------|PER%-------
                       total               14.461         21        0.69      1e+02     %
   Driver              driver_line         14.45          1         14        1e+02     %
   PW_Basis            recip2real          3.0229         2504      0.0012    21        %
   PW_Basis            gathers_scatterp    0.28828        2504      0.00012   2         %
   Potential           update_from_charge  8.1909         193       0.042     57        %
   Potential           cal_v_eff           8.1886         193       0.042     57        %
   H_Hartree_pw        v_hartree           0.69882        193       0.0036    4.8       %
   PW_Basis            real2recip          3.482          2504      0.0014    24        %
   PW_Basis            gatherp_scatters    0.30559        2504      0.00012   2.1       %
   PotXC               cal_v_eff           7.4337         193       0.039     51        %
   XC_Functional       v_xc                6.8901         97        0.071     48        %
   XC_Functional       v_xc_libxc          7.4039         193       0.038     51        %
   ESolver_OF          Run                 13.82          1         14        96        %
   KEDF_LKT            LKT_potential       4.7245         192       0.025     33        %
   KEDF_vW             vw_potential        0.59774        192       0.0031    4.1       %
 ----------------------------------------------------------------------------------------

 START  Time  : Tue May  2 12:46:29 2023
 FINISH Time  : Tue May  2 12:46:43 2023
 TOTAL  Time  : 14
 SEE INFORMATION IN : OUT.blpstest/
