 *********************************************************
 *                                                       *
 *                  WELCOME TO ABACUS v3.0               *
 *                                                       *
 *            'Atomic-orbital Based Ab-initio            *
 *                  Computation at UStc'                 *
 *                                                       *
 *          Website: http://abacus.ustc.edu.cn/          *
 *                                                       *
 *********************************************************
 Wed Dec 28 17:23:38 2022
 MAKE THE DIR         : OUT.blpstest/
Notice: symbol 'al_locpsp' is not an element symbol!!!! set the covalent radius to be 0.
Notice: symbol 'mg_locpsp' is not an element symbol!!!! set the covalent radius to be 0.
 UNIFORM GRID DIM     : 36 * 36 * 36
 UNIFORM GRID DIM(BIG): 36 * 36 * 36
func,idXC_GGA_X_PBE 101
func,idXC_GGA_C_PBE 130
 DONE(0.197181   SEC) : SETUP UNITCELL
 DONE(0.228472   SEC) : SYMMETRY
 DONE(0.388628   SEC) : INIT K-POINTS
 ---------------------------------------------------------
 Self-consistent calculations for electrons
 ---------------------------------------------------------
 SPIN    KPOINTS         PROCESSORS  
 1       286             1           
 ---------------------------------------------------------
 Use plane wave basis
 ---------------------------------------------------------
 ELEMENT NATOM       XC          
 Al      1           
 Mg      3           
 ---------------------------------------------------------
 Initial plane wave basis and FFT box
 ---------------------------------------------------------
 DONE(0.535109   SEC) : INIT PLANEWAVE
 MEMORY FOR PSI (MB)  : 102.816
 DONE(0.601702   SEC) : LOCAL POTENTIAL
 DONE(0.601749   SEC) : NON-LOCAL POTENTIAL
 DONE(0.601802   SEC) : INIT BASIS
 START CHARGE      : atomic
 DONE(0.68062    SEC) : INIT SCF
 ITER   ETOT(eV)       EDIFF(eV)      DRHO       TIME(s)    
 CG1    -1.266607e+02  0.000000e+00   7.221e-01  3.338e+01  
 CG2    -1.290068e+02  -2.346085e+00  1.966e-01  1.454e+01  
 CG3    -1.298202e+02  -8.133983e-01  7.323e-02  1.461e+01  
 CG4    -1.300025e+02  -1.823474e-01  2.002e-04  1.307e+01  
 CG5    -1.300143e+02  -1.179596e-02  2.237e-04  2.376e+01  
 CG6    -1.300148e+02  -5.216507e-04  1.289e-06  1.282e+01  
 CG7    -1.300148e+02  -1.408923e-05  4.498e-07  2.019e+01  
 CG8    -1.300148e+02  -8.677271e-07  1.471e-08  1.272e+01  
 CG9    -1.300148e+02  -5.396657e-08  1.171e-09  1.781e+01  
 CG10   -1.300148e+02  -6.830740e-09  8.327e-11  1.325e+01  

  |CLASS_NAME---------|NAME---------------|TIME(Sec)-----|CALLS----|AVG------|PER%-------
                       total               176.85         17        10        1e+02     %
   Driver              driver_line         176.84         1         1.8e+02   1e+02     %
   PW_Basis            setuptransform      0.17266        1         0.17      0.098     %
   PW_Basis_K          setuptransform      0.11092        1         0.11      0.063     %
   ESolver_KS_PW       Run                 176.24         1         1.8e+02   1e+02     %
   Potential           update_from_charge  0.39193        11        0.036     0.22      %
   Potential           cal_v_eff           0.39013        11        0.035     0.22      %
   PW_Basis            real2recip          0.10507        108       0.00097   0.059     %
   PotXC               cal_v_eff           0.36195        11        0.033     0.2       %
   XC_Functional       v_xc                109.76         6         18        62        %
   XC_Functional       v_xc_libxc          0.35973        11        0.033     0.2       %
   HSolverPW           solve               175.73         10        18        99        %
   WF_atomic           atomic_wfc          0.10665        286       0.00037   0.06      %
   DiagoIterAssist     diagH_subspace      32.598         2860      0.011     18        %
   OperatorPW          hPsi                153.53         93220     0.0016    87        %
   Operator            EkineticPW          0.64171        93220     6.9e-06   0.36      %
   Operator            VeffPW              152.57         93220     0.0016    86        %
   PW_Basis_K          recip2real          88.976         127319    0.0007    50        %
   PW_Basis_K          gathers_scatterp    7.5655         127319    5.9e-05   4.3       %
   PW_Basis_K          real2recip          65.915         113240    0.00058   37        %
   PW_Basis_K          gatherp_scatters    1.4937         113240    1.3e-05   0.84      %
   DiagoIterAssist     LAPACK_subspace     0.11777        2860      4.1e-05   0.067     %
   DiagoCG             diag_once           130.68         2860      0.046     74        %
   ElecStatePW         psiToRho            11.211         10        1.1       6.3       %
 ----------------------------------------------------------------------------------------

 START  Time  : Wed Dec 28 17:23:38 2022
 FINISH Time  : Wed Dec 28 17:26:35 2022
 TOTAL  Time  : 1.8e+02
 SEE INFORMATION IN : OUT.blpstest/
