 *********************************************************
 *                                                       *
 *                  WELCOME TO ABACUS v3.0               *
 *                                                       *
 *            'Atomic-orbital Based Ab-initio            *
 *                  Computation at UStc'                 *
 *                                                       *
 *          Website: http://abacus.ustc.edu.cn/          *
 *                                                       *
 *********************************************************
 Mon Jul 24 15:06:11 2023
 MAKE THE DIR         : OUT.blpstest/
Notice: symbol 'In_locpsp' is not an element symbol!!!! set the covalent radius to be 0.
Notice: symbol 'As_locpsp' is not an element symbol!!!! set the covalent radius to be 0.
 UNIFORM GRID DIM     : 40 * 40 * 40
 UNIFORM GRID DIM(BIG): 40 * 40 * 40
func,idXC_GGA_X_PBE 101
func,idXC_GGA_C_PBE 130
 DONE(0.190887   SEC) : SETUP UNITCELL
 DONE(0.222516   SEC) : SYMMETRY
 DONE(0.393709   SEC) : INIT K-POINTS
 ---------------------------------------------------------
 Self-consistent calculations for electrons
 ---------------------------------------------------------
 SPIN    KPOINTS         PROCESSORS  
 1       256             1           
 ---------------------------------------------------------
 Use plane wave basis
 ---------------------------------------------------------
 ELEMENT NATOM       XC          
 In      1           
 As      1           
 ---------------------------------------------------------
 Initial plane wave basis and FFT box
 ---------------------------------------------------------
 DONE(0.518134   SEC) : INIT PLANEWAVE
 MEMORY FOR PSI (MB)  : 94.3945
 DONE(0.563418   SEC) : LOCAL POTENTIAL
 DONE(0.563453   SEC) : NON-LOCAL POTENTIAL
 DONE(0.563511   SEC) : INIT BASIS
 START CHARGE      : atomic
 DONE(0.656835   SEC) : INIT SCF
 ITER   ETOT(eV)       EDIFF(eV)      DRHO       TIME(s)    
 CG1    -2.146958e+02  0.000000e+00   3.095e+00  4.416e+01  
 CG2    -2.238437e+02  -9.147962e+00  3.235e-01  2.433e+01  
 CG3    -2.248914e+02  -1.047677e+00  1.423e-02  3.064e+01  
 CG4    -2.249115e+02  -2.009505e-02  4.160e-04  3.586e+01  
 CG5    -2.249143e+02  -2.830079e-03  3.654e-05  9.955e+01  
 CG6    -2.249144e+02  -1.094070e-04  1.134e-06  8.728e+01  
 CG7    -2.249144e+02  -3.601234e-06  7.768e-09  8.706e+01  
 CG8    -2.249144e+02  -9.890472e-08  2.695e-09  8.473e+01  
 CG9    -2.249144e+02  -5.865761e-09  2.434e-11  1.944e+01  

  |CLASS_NAME---------|NAME---------------|TIME(Sec)-----|CALLS----|AVG------|PER%-------
                       total               513.76         17        30        1e+02     %
   Driver              driver_line         513.74         1         5.1e+02   1e+02     %
   PW_Basis            setuptransform      0.16562        1         0.17      0.032     %
   ESolver_KS_PW       Run                 513.18         1         5.1e+02   1e+02     %
   PW_Basis            recip2real          0.20811        62        0.0034    0.041     %
   Potential           update_from_charge  1.126          10        0.11      0.22      %
   Potential           cal_v_eff           1.1244         10        0.11      0.22      %
   PW_Basis            real2recip          0.33894        98        0.0035    0.066     %
   PotXC               cal_v_eff           1.0274         10        0.1       0.2       %
   XC_Functional       v_xc                280.86         5         56        55        %
   XC_Functional       v_xc_libxc          1.0195         10        0.1       0.2       %
   HSolverPW           solve               511.72         9         57        1e+02     %
   DiagoIterAssist     diagH_subspace      100.07         2304      0.043     19        %
   OperatorPW          hPsi                460.69         78864     0.0058    90        %
   Operator            EkineticPW          2.0024         78864     2.5e-05   0.39      %
   Operator            VeffPW              457.81         78864     0.0058    89        %
   PW_Basis_K          recip2real          236.41         106512    0.0022    46        %
   PW_Basis_K          gathers_scatterp    29.295         106512    0.00028   5.7       %
   PW_Basis_K          real2recip          193.55         97296     0.002     38        %
   PW_Basis_K          gatherp_scatters    7.7571         97296     8e-05     1.5       %
   Operator            NonlocalPW          0.11198        78864     1.4e-06   0.022     %
   DiagoIterAssist     LAPACK_subspace     0.39207        2304      0.00017   0.076     %
   DiagoCG             diag_once           384.29         2304      0.17      75        %
   ElecStatePW         psiToRho            26.106         9         2.9       5.1       %
   Charge              mix_rho             0.14339        8         0.018     0.028     %
 ----------------------------------------------------------------------------------------

 START  Time  : Mon Jul 24 15:06:11 2023
 FINISH Time  : Mon Jul 24 15:14:45 2023
 TOTAL  Time  : 5.1e+02
 SEE INFORMATION IN : OUT.blpstest/
