 *********************************************************
 *                                                       *
 *                  WELCOME TO ABACUS v3.0               *
 *                                                       *
 *            'Atomic-orbital Based Ab-initio            *
 *                  Computation at UStc'                 *
 *                                                       *
 *          Website: http://abacus.ustc.edu.cn/          *
 *                                                       *
 *********************************************************
 Wed Dec 28 12:30:01 2022
 MAKE THE DIR         : OUT.blpstest/
Notice: symbol 'Li_locpsp' is not an element symbol!!!! set the covalent radius to be 0.
 UNIFORM GRID DIM     : 30 * 30 * 30
 UNIFORM GRID DIM(BIG): 30 * 30 * 30
func,idXC_GGA_X_PBE 101
func,idXC_GGA_C_PBE 130
 DONE(0.132225   SEC) : SETUP UNITCELL
 DONE(0.188172   SEC) : SYMMETRY
 DONE(0.726673   SEC) : INIT K-POINTS
 ---------------------------------------------------------
 Self-consistent calculations for electrons
 ---------------------------------------------------------
 SPIN    KPOINTS         PROCESSORS  
 1       256             1           
 ---------------------------------------------------------
 Use plane wave basis
 ---------------------------------------------------------
 ELEMENT NATOM       XC          
 Li      1           
 ---------------------------------------------------------
 Initial plane wave basis and FFT box
 ---------------------------------------------------------
 DONE(0.850357   SEC) : INIT PLANEWAVE
 MEMORY FOR PSI (MB)  : 24.8633
 DONE(0.879721   SEC) : LOCAL POTENTIAL
 DONE(0.879761   SEC) : NON-LOCAL POTENTIAL
 DONE(0.879832   SEC) : INIT BASIS
 START CHARGE      : atomic
 DONE(0.98294    SEC) : INIT SCF
 ITER   ETOT(eV)       EDIFF(eV)      DRHO       TIME(s)    
 CG1    -7.415955e+00  0.000000e+00   9.474e-03  3.008e+01  
 CG2    -7.508758e+00  -9.280304e-02  1.065e-03  7.088e+00  
 CG3    -7.509293e+00  -5.349729e-04  7.349e-08  9.492e+00  
 CG4    -7.509318e+00  -2.501668e-05  3.364e-08  2.178e+01  
 CG5    -7.509319e+00  -6.473583e-07  1.555e-09  8.912e+00  
 CG6    -7.509319e+00  -6.778048e-09  4.204e-11  5.624e+00  

  |CLASS_NAME---------|NAME---------------|TIME(Sec)-----|CALLS----|AVG------|PER%-------
                       total               83.97          17        4.9       1e+02     %
   Driver              driver_line         83.959         1         84        1e+02     %
   PW_Basis            setuptransform      0.11379        1         0.11      0.14      %
   ESolver_KS_PW       Run                 83.084         1         83        99        %
   Potential           update_from_charge  0.26867        7         0.038     0.32      %
   Potential           cal_v_eff           0.26742        7         0.038     0.32      %
   PotXC               cal_v_eff           0.24782        7         0.035     0.3       %
   XC_Functional       v_xc                48.521         4         12        58        %
   XC_Functional       v_xc_libxc          0.24721        7         0.035     0.29      %
   HSolverPW           solve               82.718         7         12        99        %
   DiagoIterAssist     diagH_subspace      12.892         1536      0.0084    15        %
   OperatorPW          hPsi                77.565         38815     0.002     92        %
   Operator            EkineticPW          0.25884        38815     6.7e-06   0.31      %
   Operator            VeffPW              77.106         38815     0.002     92        %
   PW_Basis_K          recip2real          38.976         45981     0.00085   46        %
   PW_Basis_K          gathers_scatterp    2.853          45981     6.2e-05   3.4       %
   PW_Basis_K          real2recip          35.02          44959     0.00078   42        %
   PW_Basis_K          gatherp_scatters    1.0202         44959     2.3e-05   1.2       %
   DiagoCG             diag_once           68.077         1792      0.038     81        %
   ElecStatePW         psiToRho            0.89126        7         0.13      1.1       %
 ----------------------------------------------------------------------------------------

 START  Time  : Wed Dec 28 12:30:01 2022
 FINISH Time  : Wed Dec 28 12:31:25 2022
 TOTAL  Time  : 84
 SEE INFORMATION IN : OUT.blpstest/
