 *********************************************************
 *                                                       *
 *                  WELCOME TO ABACUS v3.0               *
 *                                                       *
 *            'Atomic-orbital Based Ab-initio            *
 *                  Computation at UStc'                 *
 *                                                       *
 *          Website: http://abacus.ustc.edu.cn/          *
 *                                                       *
 *********************************************************
 Wed May  3 14:17:11 2023
 MAKE THE DIR         : OUT.oftest/
Notice: symbol 'Li_locpsp' is not an element symbol!!!! set the covalent radius to be 0.
 UNIFORM GRID DIM     : 45 * 45 * 45
 UNIFORM GRID DIM(BIG): 45 * 45 * 45
func,idXC_GGA_X_PBE 101
func,idXC_GGA_C_PBE 130
 DONE(0.292277   SEC) : SETUP UNITCELL
 DONE(0.352362   SEC) : SYMMETRY
 DONE(0.352662   SEC) : INIT K-POINTS
 ---------------------------------------------------------
 Self-consistent calculations for electrons
 ---------------------------------------------------------
 SPIN    KPOINTS         PROCESSORS  
 1       1               1           
 ---------------------------------------------------------
 Use plane wave basis
 ---------------------------------------------------------
 ELEMENT NATOM       XC          
 Li      2           
 ---------------------------------------------------------
 Initial plane wave basis and FFT box
 ---------------------------------------------------------
 DONE(0.412566   SEC) : INIT BASIS
 DONE(0.412604   SEC) : INIT PHI
 DONE(0.541144   SEC) : LOCAL POTENTIAL
 DONE(0.541191   SEC) : NON-LOCAL POTENTIAL
 START CHARGE      : atomic
 DONE(0.845441   SEC) : INIT POTENTIAL
 DONE(0.845942   SEC) : INIT OPTIMIZATION
Default type: double
nnode = 10
nlayer = 3
feg_net_F = 0.540933
 DONE(0.936326   SEC) : INIT KEDF
======================== Running OFDFT ========================
Iter        Etot(Ha)          Theta      PotNorm     deltaE(Ha)
0     -4.989487915988e-01   2.000e-01   6.500e-02   -4.989e-01  
1     -5.152451949102e-01   5.829e-02   1.412e-02   -1.630e-02  
2     -5.153194316864e-01   2.546e-03   2.328e-03   -7.424e-05  
3     -5.153235977176e-01   8.894e-04   1.550e-03   -4.166e-06  
4     -5.153265080980e-01   1.487e-03   4.841e-04   -2.910e-06  
5     -5.153266396047e-01   1.207e-04   3.657e-04   -1.315e-07  
6     -5.153267466611e-01   1.849e-04   1.275e-04   -1.071e-07  

  |CLASS_NAME---------|NAME---------------|TIME(Sec)-----|CALLS----|AVG------|PER%-------
                       total               354.23         21        17        1e+02     %
   Driver              driver_line         354.22         1         3.5e+02   1e+02     %
   PW_Basis            setuptransform      0.25008        1         0.25      0.071     %
   ppcell_vl           init_vloc           0.12832        1         0.13      0.036     %
   Charge              atomic_rho          0.14093        1         0.14      0.04      %
   PW_Basis            recip2real          9.6953         3488      0.0028    2.7       %
   PW_Basis            gathers_scatterp    0.85568        3488      0.00025   0.24      %
   Potential           init_pot            0.15537        1         0.16      0.044     %
   Potential           update_from_charge  14.403         175       0.082     4.1       %
   Potential           cal_v_eff           14.396         175       0.082     4.1       %
   H_Hartree_pw        v_hartree           1.1276         175       0.0064    0.32      %
   PW_Basis            real2recip          9.6838         3488      0.0028    2.7       %
   PW_Basis            gatherp_scatters    0.54344        3488      0.00016   0.15      %
   PotXC               cal_v_eff           13.229         175       0.076     3.7       %
   XC_Functional       v_xc                174.86         88        2         49        %
   XC_Functional       v_xc_libxc          13.208         175       0.075     3.7       %
   ESolver_OF          Run                 353.29         1         3.5e+02   1e+02     %
   KEDF_vW             vw_potential        1.1045         174       0.0063    0.31      %
 ----------------------------------------------------------------------------------------

 START  Time  : Wed May  3 14:17:11 2023
 FINISH Time  : Wed May  3 14:23:06 2023
 TOTAL  Time  : 3.6e+02
 SEE INFORMATION IN : OUT.oftest/
