 *********************************************************
 *                                                       *
 *                  WELCOME TO ABACUS v3.0               *
 *                                                       *
 *            'Atomic-orbital Based Ab-initio            *
 *                  Computation at UStc'                 *
 *                                                       *
 *          Website: http://abacus.ustc.edu.cn/          *
 *                                                       *
 *********************************************************
 Mon Mar  6 13:41:47 2023
 MAKE THE DIR         : OUT.blpstest/
Notice: symbol 'Li_locpsp' is not an element symbol!!!! set the covalent radius to be 0.
Notice: symbol 'mg_locpsp' is not an element symbol!!!! set the covalent radius to be 0.
 UNIFORM GRID DIM     : 27 * 27 * 27
 UNIFORM GRID DIM(BIG): 27 * 27 * 27
func,idXC_GGA_X_PBE 101
func,idXC_GGA_C_PBE 130
 DONE(0.0943955  SEC) : SETUP UNITCELL
 DONE(0.124988   SEC) : SYMMETRY
 DONE(0.287332   SEC) : INIT K-POINTS
 ---------------------------------------------------------
 Self-consistent calculations for electrons
 ---------------------------------------------------------
 SPIN    KPOINTS         PROCESSORS  
 1       286             1           
 ---------------------------------------------------------
 Use plane wave basis
 ---------------------------------------------------------
 ELEMENT NATOM       XC          
 Li      1           
 Mg      1           
 ---------------------------------------------------------
 Initial plane wave basis and FFT box
 ---------------------------------------------------------
 DONE(0.353603   SEC) : INIT PLANEWAVE
 MEMORY FOR PSI (MB)  : 32.3897
 DONE(0.377026   SEC) : LOCAL POTENTIAL
 DONE(0.377055   SEC) : NON-LOCAL POTENTIAL
 DONE(0.377103   SEC) : INIT BASIS
 START CHARGE      : atomic
 DONE(0.413889   SEC) : INIT SCF
 ITER   ETOT(eV)       EDIFF(eV)      DRHO       TIME(s)    
 CG1    -3.165801e+01  0.000000e+00   6.061e-02  1.104e+01  
 CG2    -3.191195e+01  -2.539404e-01  5.715e-03  4.205e+00  
 CG3    -3.191650e+01  -4.550372e-03  1.482e-06  5.132e+00  
 CG4    -3.191697e+01  -4.671745e-04  1.583e-06  9.172e+00  
 CG5    -3.191697e+01  -4.966509e-06  4.545e-08  3.441e+00  
 CG6    -3.191697e+01  -3.893177e-07  2.197e-08  5.276e+00  
 CG7    -3.191697e+01  -1.236801e-08  1.516e-10  3.486e+00  

  |CLASS_NAME---------|NAME---------------|TIME(Sec)-----|CALLS----|AVG------|PER%-------
                       total               42.177         17        2.5       1e+02     %
   Driver              driver_line         42.165         1         42        1e+02     %
   ESolver_KS_PW       Run                 41.793         1         42        99        %
   Potential           update_from_charge  0.1178         8         0.015     0.28      %
   Potential           cal_v_eff           0.11712        8         0.015     0.28      %
   PotXC               cal_v_eff           0.10838        8         0.014     0.26      %
   XC_Functional       v_xc                23.098         4         5.8       55        %
   XC_Functional       v_xc_libxc          0.10821        8         0.014     0.26      %
   HSolverPW           solve               41.625         7         5.9       99        %
   DiagoIterAssist     diagH_subspace      8.0286         2002      0.004     19        %
   OperatorPW          hPsi                38.342         48445     0.00079   91        %
   Operator            EkineticPW          0.1354         48445     2.8e-06   0.32      %
   Operator            VeffPW              38.107         48445     0.00079   90        %
   PW_Basis_K          recip2real          20.179         61658     0.00033   48        %
   PW_Basis_K          gathers_scatterp    1.5994         61658     2.6e-05   3.8       %
   PW_Basis_K          real2recip          17.666         58455     0.0003    42        %
   PW_Basis_K          gatherp_scatters    0.45832        58455     7.8e-06   1.1       %
   DiagoCG             diag_once           32.042         2002      0.016     76        %
   ElecStatePW         psiToRho            1.1443         7         0.16      2.7       %
 ----------------------------------------------------------------------------------------

 START  Time  : Mon Mar  6 13:41:47 2023
 FINISH Time  : Mon Mar  6 13:42:29 2023
 TOTAL  Time  : 42
 SEE INFORMATION IN : OUT.blpstest/
