 *********************************************************
 *                                                       *
 *                  WELCOME TO ABACUS v3.0               *
 *                                                       *
 *            'Atomic-orbital Based Ab-initio            *
 *                  Computation at UStc'                 *
 *                                                       *
 *          Website: http://abacus.ustc.edu.cn/          *
 *                                                       *
 *********************************************************
 Wed Apr 26 00:06:32 2023
 MAKE THE DIR         : OUT.oftest/
Notice: symbol 'al_locpsp' is not an element symbol!!!! set the covalent radius to be 0.
 UNIFORM GRID DIM     : 25 * 25 * 25
 UNIFORM GRID DIM(BIG): 25 * 25 * 25
func,idXC_GGA_X_PBE 101
func,idXC_GGA_C_PBE 130
 DONE(0.0896635  SEC) : SETUP UNITCELL
 DONE(0.143814   SEC) : SYMMETRY
 DONE(0.144023   SEC) : INIT K-POINTS
 ---------------------------------------------------------
 Self-consistent calculations for electrons
 ---------------------------------------------------------
 SPIN    KPOINTS         PROCESSORS  
 1       1               1           
 ---------------------------------------------------------
 Use plane wave basis
 ---------------------------------------------------------
 ELEMENT NATOM       XC          
 Al      1           
 ---------------------------------------------------------
 Initial plane wave basis and FFT box
 ---------------------------------------------------------
 DONE(0.145005   SEC) : INIT BASIS
 DONE(0.145037   SEC) : INIT PHI
 DONE(0.178854   SEC) : LOCAL POTENTIAL
 DONE(0.178891   SEC) : NON-LOCAL POTENTIAL
 START CHARGE      : atomic
 DONE(0.237691   SEC) : INIT POTENTIAL
 DONE(0.237736   SEC) : INIT OPTIMIZATION
Default type: double
nnode = 10
nlayer = 3
feg_net_F = 0.540933
 DONE(0.280222   SEC) : INIT KEDF
======================== Running OFDFT ========================
Iter        Etot(Ha)          Theta      PotNorm     deltaE(Ha)
0     -1.984623734348e+00   2.000e-01   2.650e-01   -1.985e+00  
1     -2.005772875362e+00   5.472e-02   4.198e-01   -2.115e-02  
2     -2.084687105542e+00   8.162e-02   1.811e-01   -7.891e-02  
3     -2.088363723132e+00   1.299e-02   1.444e-02   -3.677e-03  
4     -2.088394872083e+00   1.659e-03   7.403e-03   -3.115e-05  
5     -2.088400882746e+00   6.243e-04   3.434e-03   -6.011e-06  
6     -2.088402203673e+00   2.320e-04   2.398e-03   -1.321e-06  
7     -2.088403729504e+00   5.872e-04   1.890e-04   -1.526e-06  
8     -2.088403734497e+00   1.759e-05   1.431e-04   -4.992e-09  
9     -2.088403735916e+00   6.196e-06   5.411e-05   -1.420e-09  

  |CLASS_NAME---------|NAME---------------|TIME(Sec)-----|CALLS----|AVG------|PER%-------
                       total               147.28         21        7         1e+02     %
   Driver              driver_line         147.27         1         1.5e+02   1e+02     %
   PW_Basis            recip2real          2.8002         4488      0.00062   1.9       %
   PW_Basis            gathers_scatterp    0.23178        4488      5.2e-05   0.16      %
   Potential           update_from_charge  4.2476         225       0.019     2.9       %
   Potential           cal_v_eff           4.2462         225       0.019     2.9       %
   H_Hartree_pw        v_hartree           0.32521        225       0.0014    0.22      %
   PW_Basis            real2recip          2.6645         4488      0.00059   1.8       %
   PW_Basis            gatherp_scatters    0.13784        4488      3.1e-05   0.094     %
   PotXC               cal_v_eff           3.9072         225       0.017     2.7       %
   XC_Functional       v_xc                72.912         113       0.65      50        %
   XC_Functional       v_xc_libxc          3.8997         225       0.017     2.6       %
   ESolver_OF          Run                 147            1         1.5e+02   1e+02     %
   KEDF_vW             vw_potential        0.32131        224       0.0014    0.22      %
 ----------------------------------------------------------------------------------------

 START  Time  : Wed Apr 26 00:06:32 2023
 FINISH Time  : Wed Apr 26 00:08:59 2023
 TOTAL  Time  : 1.5e+02
 SEE INFORMATION IN : OUT.oftest/
