 *********************************************************
 *                                                       *
 *                  WELCOME TO ABACUS v3.0               *
 *                                                       *
 *            'Atomic-orbital Based Ab-initio            *
 *                  Computation at UStc'                 *
 *                                                       *
 *          Website: http://abacus.ustc.edu.cn/          *
 *                                                       *
 *********************************************************
 Wed Dec 28 12:33:45 2022
 MAKE THE DIR         : OUT.blpstest/
Notice: symbol 'Li_locpsp' is not an element symbol!!!! set the covalent radius to be 0.
 UNIFORM GRID DIM     : 27 * 27 * 27
 UNIFORM GRID DIM(BIG): 27 * 27 * 27
func,idXC_GGA_X_PBE 101
func,idXC_GGA_C_PBE 130
 DONE(0.101398   SEC) : SETUP UNITCELL
 DONE(0.1554     SEC) : SYMMETRY
 DONE(0.49535    SEC) : INIT K-POINTS
 ---------------------------------------------------------
 Self-consistent calculations for electrons
 ---------------------------------------------------------
 SPIN    KPOINTS         PROCESSORS  
 1       256             1           
 ---------------------------------------------------------
 Use plane wave basis
 ---------------------------------------------------------
 ELEMENT NATOM       XC          
 Li      1           
 ---------------------------------------------------------
 Initial plane wave basis and FFT box
 ---------------------------------------------------------
 DONE(0.59059    SEC) : INIT PLANEWAVE
 MEMORY FOR PSI (MB)  : 20.4688
 DONE(0.601352   SEC) : LOCAL POTENTIAL
 DONE(0.60139    SEC) : NON-LOCAL POTENTIAL
 DONE(0.601455   SEC) : INIT BASIS
 START CHARGE      : atomic
 DONE(0.642854   SEC) : INIT SCF
 ITER   ETOT(eV)       EDIFF(eV)      DRHO       TIME(s)    
 CG1    -7.465513e+00  0.000000e+00   9.905e-03  2.324e+01  
 CG2    -7.546478e+00  -8.096506e-02  1.088e-03  5.960e+00  
 CG3    -7.546936e+00  -4.577025e-04  5.342e-08  6.935e+00  
 CG4    -7.546957e+00  -2.068844e-05  2.577e-08  1.614e+01  
 CG5    -7.546957e+00  -5.411351e-07  1.209e-09  9.974e+00  
 CG6    -7.546957e+00  -4.857728e-09  3.295e-11  8.855e+00  

  |CLASS_NAME---------|NAME---------------|TIME(Sec)-----|CALLS----|AVG------|PER%-------
                       total               71.767         17        4.2       1e+02     %
   Driver              driver_line         71.755         1         72        1e+02     %
   ESolver_KS_PW       Run                 71.157         1         71        99        %
   Potential           update_from_charge  0.19412        7         0.028     0.27      %
   Potential           cal_v_eff           0.19309        7         0.028     0.27      %
   PotXC               cal_v_eff           0.17681        7         0.025     0.25      %
   XC_Functional       v_xc                40.149         4         10        56        %
   XC_Functional       v_xc_libxc          0.17636        7         0.025     0.25      %
   HSolverPW           solve               70.896         7         10        99        %
   DiagoIterAssist     diagH_subspace      11.942         1536      0.0078    17        %
   OperatorPW          hPsi                66.677         38572     0.0017    93        %
   Operator            EkineticPW          0.21669        38572     5.6e-06   0.3       %
   Operator            VeffPW              66.256         38572     0.0017    92        %
   PW_Basis_K          recip2real          33.176         45709     0.00073   46        %
   PW_Basis_K          gathers_scatterp    2.2274         45709     4.9e-05   3.1       %
   PW_Basis_K          real2recip          30.955         44716     0.00069   43        %
   PW_Basis_K          gatherp_scatters    0.82412        44716     1.8e-05   1.1       %
   DiagoIterAssist     LAPACK_subspace     0.1052         1536      6.8e-05   0.15      %
   DiagoCG             diag_once           57.529         1792      0.032     80        %
   ElecStatePW         psiToRho            0.75994        7         0.11      1.1       %
 ----------------------------------------------------------------------------------------

 START  Time  : Wed Dec 28 12:33:45 2022
 FINISH Time  : Wed Dec 28 12:34:57 2022
 TOTAL  Time  : 72
 SEE INFORMATION IN : OUT.blpstest/
