 *********************************************************
 *                                                       *
 *                  WELCOME TO ABACUS v3.0               *
 *                                                       *
 *            'Atomic-orbital Based Ab-initio            *
 *                  Computation at UStc'                 *
 *                                                       *
 *          Website: http://abacus.ustc.edu.cn/          *
 *                                                       *
 *********************************************************
 Wed Apr 26 09:43:29 2023
 MAKE THE DIR         : OUT.oftest/
Notice: symbol 'Li_locpsp' is not an element symbol!!!! set the covalent radius to be 0.
 UNIFORM GRID DIM     : 27 * 27 * 27
 UNIFORM GRID DIM(BIG): 27 * 27 * 27
func,idXC_GGA_X_PBE 101
func,idXC_GGA_C_PBE 130
 DONE(0.11047    SEC) : SETUP UNITCELL
 DONE(0.166329   SEC) : SYMMETRY
 DONE(0.166586   SEC) : INIT K-POINTS
 ---------------------------------------------------------
 Self-consistent calculations for electrons
 ---------------------------------------------------------
 SPIN    KPOINTS         PROCESSORS  
 1       1               1           
 ---------------------------------------------------------
 Use plane wave basis
 ---------------------------------------------------------
 ELEMENT NATOM       XC          
 Li      1           
 ---------------------------------------------------------
 Initial plane wave basis and FFT box
 ---------------------------------------------------------
 DONE(0.167752   SEC) : INIT BASIS
 DONE(0.167777   SEC) : INIT PHI
 DONE(0.193226   SEC) : LOCAL POTENTIAL
 DONE(0.193266   SEC) : NON-LOCAL POTENTIAL
 START CHARGE      : atomic
 DONE(0.25614    SEC) : INIT POTENTIAL
 DONE(0.256191   SEC) : INIT OPTIMIZATION
Default type: double
nnode = 10
nlayer = 3
feg_net_F = 0.540933
 DONE(0.299472   SEC) : INIT KEDF
======================== Running OFDFT ========================
Iter        Etot(Ha)          Theta      PotNorm     deltaE(Ha)
0     -2.629396766571e-01   2.000e-01   6.338e-02   -2.629e-01  
1     -2.711038133121e-01   6.471e-02   1.556e-02   -8.164e-03  
2     -2.712019757931e-01   6.329e-03   1.421e-03   -9.816e-05  
3     -2.712033103052e-01   9.722e-04   6.817e-04   -1.335e-06  
4     -2.712035768649e-01   3.913e-04   3.944e-04   -2.666e-07  
5     -2.712036253515e-01   1.267e-04   1.620e-04   -4.849e-08  

  |CLASS_NAME---------|NAME---------------|TIME(Sec)-----|CALLS----|AVG------|PER%-------
                       total               110.93         21        5.3       1e+02     %
   Driver              driver_line         110.92         1         1.1e+02   1e+02     %
   PW_Basis            recip2real          2.4824         2508      0.00099   2.2       %
   PW_Basis            gathers_scatterp    0.17816        2508      7.1e-05   0.16      %
   Potential           update_from_charge  3.4306         126       0.027     3.1       %
   Potential           cal_v_eff           3.4286         126       0.027     3.1       %
   H_Hartree_pw        v_hartree           0.28572        126       0.0023    0.26      %
   PW_Basis            real2recip          2.4187         2508      0.00096   2.2       %
   PotXC               cal_v_eff           3.1328         126       0.025     2.8       %
   XC_Functional       v_xc                54.981         63        0.87      50        %
   XC_Functional       v_xc_libxc          3.1276         126       0.025     2.8       %
   ESolver_OF          Run                 110.63         1         1.1e+02   1e+02     %
   KEDF_vW             vw_potential        0.27828        125       0.0022    0.25      %
 ----------------------------------------------------------------------------------------

 START  Time  : Wed Apr 26 09:43:29 2023
 FINISH Time  : Wed Apr 26 09:45:20 2023
 TOTAL  Time  : 1.1e+02
 SEE INFORMATION IN : OUT.oftest/
