 *********************************************************
 *                                                       *
 *                  WELCOME TO ABACUS v3.0               *
 *                                                       *
 *            'Atomic-orbital Based Ab-initio            *
 *                  Computation at UStc'                 *
 *                                                       *
 *          Website: http://abacus.ustc.edu.cn/          *
 *                                                       *
 *********************************************************
 Tue May  2 12:49:08 2023
 MAKE THE DIR         : OUT.blpstest/
Notice: symbol 'Li_locpsp' is not an element symbol!!!! set the covalent radius to be 0.
 UNIFORM GRID DIM     : 25 * 25 * 25
 UNIFORM GRID DIM(BIG): 25 * 25 * 25
func,idXC_GGA_X_PBE 101
func,idXC_GGA_C_PBE 130
 DONE(0.0865995  SEC) : SETUP UNITCELL
 DONE(0.142146   SEC) : SYMMETRY
 DONE(0.142355   SEC) : INIT K-POINTS
 ---------------------------------------------------------
 Self-consistent calculations for electrons
 ---------------------------------------------------------
 SPIN    KPOINTS         PROCESSORS  
 1       1               1           
 ---------------------------------------------------------
 Use plane wave basis
 ---------------------------------------------------------
 ELEMENT NATOM       XC          
 Li      1           
 ---------------------------------------------------------
 Initial plane wave basis and FFT box
 ---------------------------------------------------------
 DONE(0.143345   SEC) : INIT BASIS
 DONE(0.143363   SEC) : INIT PHI
 DONE(0.165077   SEC) : LOCAL POTENTIAL
 DONE(0.165108   SEC) : NON-LOCAL POTENTIAL
 START CHARGE      : atomic
 DONE(0.209481   SEC) : INIT POTENTIAL
 DONE(0.209525   SEC) : INIT OPTIMIZATION
Default type: double
 DONE(0.210491   SEC) : INIT KEDF
======================== Running OFDFT ========================
Iter        Etot(Ha)          Theta      PotNorm     deltaE(Ha)
0     -2.621086246588e-01   2.000e-01   7.388e-02   -2.621e-01  
1     -2.728604064426e-01   7.583e-02   2.288e-02   -1.075e-02  
2     -2.730846573281e-01   6.398e-03   1.831e-03   -2.243e-04  
3     -2.730880692948e-01   1.768e-03   6.837e-04   -3.412e-06  
4     -2.730882165454e-01   1.880e-04   1.890e-04   -1.473e-07  
5     -2.730882435378e-01   1.674e-04   3.022e-05   -2.699e-08  

  |CLASS_NAME---------|NAME---------------|TIME(Sec)-----|CALLS----|AVG------|PER%-------
                       total               5.7759         21        0.28      1e+02     %
   Driver              driver_line         5.7653         1         5.8       1e+02     %
   PW_Basis            recip2real          1.0322         1464      0.00071   18        %
   PW_Basis            gathers_scatterp    0.1099         1464      7.5e-05   1.9       %
   Potential           update_from_charge  3.2921         113       0.029     57        %
   Potential           cal_v_eff           3.2906         113       0.029     57        %
   H_Hartree_pw        v_hartree           0.25059        113       0.0022    4.3       %
   PW_Basis            real2recip          1.0745         1464      0.00073   19        %
   PW_Basis            gatherp_scatters    0.10665        1464      7.3e-05   1.8       %
   PotXC               cal_v_eff           3.0206         113       0.027     52        %
   XC_Functional       v_xc                2.7761         57        0.049     48        %
   XC_Functional       v_xc_libxc          2.9774         113       0.026     52        %
   ESolver_OF          Run                 5.5639         1         5.6       96        %
   KEDF_LKT            LKT_potential       1.9021         112       0.017     33        %
   KEDF_vW             vw_potential        0.22051        112       0.002     3.8       %
 ----------------------------------------------------------------------------------------

 START  Time  : Tue May  2 12:49:08 2023
 FINISH Time  : Tue May  2 12:49:14 2023
 TOTAL  Time  : 6
 SEE INFORMATION IN : OUT.blpstest/
