 *********************************************************
 *                                                       *
 *                  WELCOME TO ABACUS v3.0               *
 *                                                       *
 *            'Atomic-orbital Based Ab-initio            *
 *                  Computation at UStc'                 *
 *                                                       *
 *          Website: http://abacus.ustc.edu.cn/          *
 *                                                       *
 *********************************************************
 Mon Jul 24 14:09:11 2023
 MAKE THE DIR         : OUT.blpstest/
Notice: symbol 'al_locpsp' is not an element symbol!!!! set the covalent radius to be 0.
Notice: symbol 'Sb_locpsp' is not an element symbol!!!! set the covalent radius to be 0.
 UNIFORM GRID DIM     : 45 * 45 * 45
 UNIFORM GRID DIM(BIG): 45 * 45 * 45
func,idXC_GGA_X_PBE 101
func,idXC_GGA_C_PBE 130
 DONE(0.160104   SEC) : SETUP UNITCELL
 DONE(0.189723   SEC) : SYMMETRY
 DONE(0.356887   SEC) : INIT K-POINTS
 ---------------------------------------------------------
 Self-consistent calculations for electrons
 ---------------------------------------------------------
 SPIN    KPOINTS         PROCESSORS  
 1       256             1           
 ---------------------------------------------------------
 Use plane wave basis
 ---------------------------------------------------------
 ELEMENT NATOM       XC          
 Al      1           
 Sb      1           
 ---------------------------------------------------------
 Initial plane wave basis and FFT box
 ---------------------------------------------------------
 DONE(0.478713   SEC) : INIT PLANEWAVE
 MEMORY FOR PSI (MB)  : 109.652
 DONE(0.528768   SEC) : LOCAL POTENTIAL
 DONE(0.52881    SEC) : NON-LOCAL POTENTIAL
 DONE(0.52889    SEC) : INIT BASIS
 START CHARGE      : atomic
 DONE(0.652805   SEC) : INIT SCF
 ITER   ETOT(eV)       EDIFF(eV)      DRHO       TIME(s)    
 CG1    -2.025158e+02  0.000000e+00   1.408e+00  1.768e+02  
 CG2    -2.054017e+02  -2.885914e+00  9.012e-02  3.820e+02  
 CG3    -2.056903e+02  -2.885766e-01  1.463e-02  4.334e+02  
 CG4    -2.057295e+02  -3.920222e-02  6.941e-05  3.102e+02  
 CG5    -2.057312e+02  -1.715381e-03  4.112e-05  2.670e+02  
 CG6    -2.057313e+02  -1.262233e-04  2.749e-06  4.790e+01  
 CG7    -2.057313e+02  -8.050216e-06  3.072e-09  4.061e+01  
 CG8    -2.057313e+02  -1.689692e-07  2.084e-10  5.134e+01  

  |CLASS_NAME---------|NAME---------------|TIME(Sec)-----|CALLS----|AVG------|PER%-------
                       total               1710           17        1e+02     1e+02     %
   Driver              driver_line         1710           1         1.7e+03   1e+02     %
   PW_Basis            setuptransform      0.13611        1         0.14      0.008     %
   ESolver_KS_PW       Run                 1709.5         1         1.7e+03   1e+02     %
   PW_Basis            recip2real          0.60142        56        0.011     0.035     %
   Potential           update_from_charge  2.4129         9         0.27      0.14      %
   Potential           cal_v_eff           2.4106         9         0.27      0.14      %
   H_Hartree_pw        v_hartree           0.21072        9         0.023     0.012     %
   PW_Basis            real2recip          0.92793        88        0.011     0.054     %
   PotXC               cal_v_eff           2.1768         9         0.24      0.13      %
   XC_Functional       v_xc                918.11         5         1.8e+02   54        %
   XC_Functional       v_xc_libxc          2.1474         9         0.24      0.13      %
   Symmetry            rho_symmetry        0.13284        9         0.015     0.0078    %
   HSolverPW           solve               1706.3         8         2.1e+02   1e+02     %
   DiagoIterAssist     diagH_subspace      360.89         2048      0.18      21        %
   OperatorPW          hPsi                1578.1         77878     0.02      92        %
   Operator            EkineticPW          2.8511         77878     3.7e-05   0.17      %
   Operator            VeffPW              1574           77878     0.02      92        %
   PW_Basis_K          recip2real          850.1          102454    0.0083    50        %
   PW_Basis_K          gathers_scatterp    61.854         102454    0.0006    3.6       %
   PW_Basis_K          real2recip          715.57         94262     0.0076    42        %
   PW_Basis_K          gatherp_scatters    16.172         94262     0.00017   0.95      %
   Operator            NonlocalPW          0.15359        77878     2e-06     0.009     %
   DiagoIterAssist     LAPACK_subspace     0.40362        2048      0.0002    0.024     %
   DiagoCG             diag_once           1250.6         2048      0.61      73        %
   ElecStatePW         psiToRho            93.109         8         12        5.4       %
   Charge              mix_rho             0.2715         7         0.039     0.016     %
 ----------------------------------------------------------------------------------------

 START  Time  : Mon Jul 24 14:09:11 2023
 FINISH Time  : Mon Jul 24 14:37:41 2023
 TOTAL  Time  : 1.7e+03
 SEE INFORMATION IN : OUT.blpstest/
