 *********************************************************
 *                                                       *
 *                  WELCOME TO ABACUS v3.0               *
 *                                                       *
 *            'Atomic-orbital Based Ab-initio            *
 *                  Computation at UStc'                 *
 *                                                       *
 *          Website: http://abacus.ustc.edu.cn/          *
 *                                                       *
 *********************************************************
 Wed May  3 14:14:01 2023
 MAKE THE DIR         : OUT.oftest/
Notice: symbol 'Li_locpsp' is not an element symbol!!!! set the covalent radius to be 0.
 UNIFORM GRID DIM     : 32 * 32 * 32
 UNIFORM GRID DIM(BIG): 32 * 32 * 32
func,idXC_GGA_X_PBE 101
func,idXC_GGA_C_PBE 130
 DONE(0.176693   SEC) : SETUP UNITCELL
 DONE(0.23283    SEC) : SYMMETRY
 DONE(0.233038   SEC) : INIT K-POINTS
 ---------------------------------------------------------
 Self-consistent calculations for electrons
 ---------------------------------------------------------
 SPIN    KPOINTS         PROCESSORS  
 1       1               1           
 ---------------------------------------------------------
 Use plane wave basis
 ---------------------------------------------------------
 ELEMENT NATOM       XC          
 Li      1           
 ---------------------------------------------------------
 Initial plane wave basis and FFT box
 ---------------------------------------------------------
 DONE(0.234744   SEC) : INIT BASIS
 DONE(0.23477    SEC) : INIT PHI
 DONE(0.299859   SEC) : LOCAL POTENTIAL
 DONE(0.299892   SEC) : NON-LOCAL POTENTIAL
 START CHARGE      : atomic
 DONE(0.426467   SEC) : INIT POTENTIAL
 DONE(0.426695   SEC) : INIT OPTIMIZATION
Default type: double
nnode = 10
nlayer = 3
feg_net_F = 0.540933
 DONE(0.47115    SEC) : INIT KEDF
======================== Running OFDFT ========================
Iter        Etot(Ha)          Theta      PotNorm     deltaE(Ha)
0     -2.666877659432e-01   2.000e-01   7.590e-02   -2.667e-01  
1     -2.767361067911e-01   7.138e-02   3.988e-02   -1.005e-02  
2     -2.769807577125e-01   8.260e-03   1.190e-02   -2.447e-04  
3     -2.769934639693e-01   9.413e-04   6.332e-03   -1.271e-05  
4     -2.770049985702e-01   2.231e-03   6.188e-03   -1.153e-05  
5     -2.770104507575e-01   1.171e-03   3.115e-03   -5.452e-06  
6     -2.770125231853e-01   1.286e-03   2.457e-04   -2.072e-06  
7     -2.770125303353e-01   2.638e-05   1.187e-04   -7.150e-09  
8     -2.770125317608e-01   1.354e-05   1.133e-05   -1.426e-09  

  |CLASS_NAME---------|NAME---------------|TIME(Sec)-----|CALLS----|AVG------|PER%-------
                       total               278.43         21        13        1e+02     %
   Driver              driver_line         278.42         1         2.8e+02   1e+02     %
   PW_Basis            setuptransform      0.14912        1         0.15      0.054     %
   PW_Basis            recip2real          4.5718         4548      0.001     1.6       %
   PW_Basis            gathers_scatterp    0.46778        4548      0.0001    0.17      %
   Potential           update_from_charge  7.9685         228       0.035     2.9       %
   Potential           cal_v_eff           7.9662         228       0.035     2.9       %
   H_Hartree_pw        v_hartree           0.55526        228       0.0024    0.2       %
   PW_Basis            real2recip          4.3672         4548      0.00096   1.6       %
   PW_Basis            gatherp_scatters    0.29442        4548      6.5e-05   0.11      %
   PotXC               cal_v_eff           7.3864         228       0.032     2.7       %
   XC_Functional       v_xc                138.49         114       1.2       50        %
   XC_Functional       v_xc_libxc          7.3698         228       0.032     2.6       %
   ESolver_OF          Run                 277.96         1         2.8e+02   1e+02     %
   KEDF_vW             vw_potential        0.53467        227       0.0024    0.19      %
 ----------------------------------------------------------------------------------------

 START  Time  : Wed May  3 14:14:01 2023
 FINISH Time  : Wed May  3 14:18:39 2023
 TOTAL  Time  : 2.8e+02
 SEE INFORMATION IN : OUT.oftest/
