 *********************************************************
 *                                                       *
 *                  WELCOME TO ABACUS v3.0               *
 *                                                       *
 *            'Atomic-orbital Based Ab-initio            *
 *                  Computation at UStc'                 *
 *                                                       *
 *          Website: http://abacus.ustc.edu.cn/          *
 *                                                       *
 *********************************************************
 Wed Dec 28 12:42:27 2022
 MAKE THE DIR         : OUT.blpstest/
Notice: symbol 'mg_locpsp' is not an element symbol!!!! set the covalent radius to be 0.
 UNIFORM GRID DIM     : 30 * 30 * 30
 UNIFORM GRID DIM(BIG): 30 * 30 * 30
func,idXC_GGA_X_PBE 101
func,idXC_GGA_C_PBE 130
 DONE(0.126947   SEC) : SETUP UNITCELL
 DONE(0.179812   SEC) : SYMMETRY
 DONE(0.520671   SEC) : INIT K-POINTS
 ---------------------------------------------------------
 Self-consistent calculations for electrons
 ---------------------------------------------------------
 SPIN    KPOINTS         PROCESSORS  
 1       256             1           
 ---------------------------------------------------------
 Use plane wave basis
 ---------------------------------------------------------
 ELEMENT NATOM       XC          
 Mg      1           
 ---------------------------------------------------------
 Initial plane wave basis and FFT box
 ---------------------------------------------------------
 DONE(0.671445   SEC) : INIT PLANEWAVE
 MEMORY FOR PSI (MB)  : 28.2422
 DONE(0.687066   SEC) : LOCAL POTENTIAL
 DONE(0.687122   SEC) : NON-LOCAL POTENTIAL
 DONE(0.687229   SEC) : INIT BASIS
 START CHARGE      : atomic
 DONE(0.763982   SEC) : INIT SCF
 ITER   ETOT(eV)       EDIFF(eV)      DRHO       TIME(s)    
 CG1    -2.400764e+01  0.000000e+00   4.766e-02  3.051e+01  
 CG2    -2.420780e+01  -2.001597e-01  4.423e-03  1.185e+01  
 CG3    -2.421179e+01  -3.983481e-03  5.120e-06  1.473e+01  
 CG4    -2.421212e+01  -3.364743e-04  7.342e-06  2.326e+01  
 CG5    -2.421215e+01  -2.795364e-05  2.421e-06  1.124e+01  
 CG6    -2.421216e+01  -8.197387e-06  4.108e-06  1.197e+01  
 CG7    -2.421213e+01  2.710709e-05   1.693e-06  1.056e+01  
 CG8    -2.421216e+01  -2.989341e-05  1.248e-05  1.049e+01  
 CG9    -2.421216e+01  -1.380605e-06  6.510e-08  1.054e+01  
 CG10   -2.421216e+01  1.565962e-07   6.662e-08  1.115e+01  
 CG11   -2.421216e+01  -3.541731e-07  1.224e-07  1.058e+01  
 CG12   -2.421216e+01  -1.809030e-08  2.176e-11  8.176e+00  

  |CLASS_NAME---------|NAME---------------|TIME(Sec)-----|CALLS----|AVG------|PER%-------
                       total               165.85         17        9.8       1e+02     %
   Driver              driver_line         165.84         1         1.7e+02   1e+02     %
   PW_Basis            setuptransform      0.11349        1         0.11      0.068     %
   PW_Basis_K          setuptransform      0.12605        1         0.13      0.076     %
   ESolver_KS_PW       Run                 165.15         1         1.7e+02   1e+02     %
   PW_Basis            recip2real          0.11221        80        0.0014    0.068     %
   Potential           update_from_charge  0.60971        13        0.047     0.37      %
   Potential           cal_v_eff           0.60814        13        0.047     0.37      %
   PW_Basis            real2recip          0.19412        128       0.0015    0.12      %
   PotXC               cal_v_eff           0.55745        13        0.043     0.34      %
   XC_Functional       v_xc                88.183         7         13        53        %
   XC_Functional       v_xc_libxc          0.5553         13        0.043     0.33      %
   HSolverPW           solve               164.34         12        14        99        %
   DiagoIterAssist     diagH_subspace      40.504         3072      0.013     24        %
   OperatorPW          hPsi                151.31         55714     0.0027    91        %
   Operator            EkineticPW          0.68723        55714     1.2e-05   0.41      %
   Operator            VeffPW              150.15         55714     0.0027    91        %
   PW_Basis_K          recip2real          79.639         74478     0.0011    48        %
   PW_Basis_K          gathers_scatterp    6.4322         74478     8.6e-05   3.9       %
   PW_Basis_K          real2recip          60.795         71074     0.00086   37        %
   PW_Basis_K          gatherp_scatters    2.9243         71074     4.1e-05   1.8       %
   DiagoIterAssist     LAPACK_subspace     0.35984        3072      0.00012   0.22      %
   DiagoCG             diag_once           118.82         3072      0.039     72        %
   ElecStatePW         psiToRho            4.0315         12        0.34      2.4       %
 ----------------------------------------------------------------------------------------

 START  Time  : Wed Dec 28 12:42:27 2022
 FINISH Time  : Wed Dec 28 12:45:13 2022
 TOTAL  Time  : 1.7e+02
 SEE INFORMATION IN : OUT.blpstest/
