                                                                                     
                             WELCOME TO ABACUS                                       
                                                                                     
               'Atomic-orbital Based Ab-initio Computation at UStc'                  
                                                                                     
                     Website: http://abacus.ustc.edu.cn/                             
                                                                                     
    Version: Parallel, in development
    Processor Number is 16
    Start Time is Tue Mar 29 17:25:36 2022
                                                                                     
 ------------------------------------------------------------------------------------

 READING GENERAL INFORMATION
                           global_out_dir = OUT.stack/
                           global_in_card = INPUT
                               pseudo_dir = 
                              orbital_dir = 
                              pseudo_type = auto
                                    DRANK = 1
                                    DSIZE = 16
                                   DCOLOR = 1
                                    GRANK = 1
                                    GSIZE = 1




 >>>>>>>>>>>>>>>>>>>>>>>>>>>>>>>>>>>>>>>>>>>>>>>>>>>>>>>>>>>>>>>>>>>>>>
 |                                                                    |
 | Reading atom information in unitcell:                              |
 | From the input file and the structure file we know the number of   |
 | different elments in this unitcell, then we list the detail        |
 | information for each element, especially the zeta and polar atomic |
 | orbital number for each element. The total atom number is counted. |
 | We calculate the nearest atom distance for each atom and show the  |
 | Cartesian and Direct coordinates for each atom. We list the file   |
 | address for atomic orbitals. The volume and the lattice vectors    |
 | in real and reciprocal space is also shown.                        |
 |                                                                    |
 <<<<<<<<<<<<<<<<<<<<<<<<<<<<<<<<<<<<<<<<<<<<<<<<<<<<<<<<<<<<<<<<<<<<<<




 READING UNITCELL INFORMATION
                                    ntype = 1
                 atom label for species 1 = Al
                  lattice constant (Bohr) = 7.49843
              lattice constant (Angstrom) = 3.968

 READING ATOM TYPE 1
                               atom label = Al
                      L=0, number of zeta = 1
                      L=1, number of zeta = 1
                      L=2, number of zeta = 1
             number of atom for this type = 20
                      start magnetization = FALSE
                      start magnetization = FALSE
                      start magnetization = FALSE
                      start magnetization = FALSE
                      start magnetization = FALSE
                      start magnetization = FALSE
                      start magnetization = FALSE
                      start magnetization = FALSE
                      start magnetization = FALSE
                      start magnetization = FALSE
                      start magnetization = FALSE
                      start magnetization = FALSE
                      start magnetization = FALSE
                      start magnetization = FALSE
                      start magnetization = FALSE
                      start magnetization = FALSE
                      start magnetization = FALSE
                      start magnetization = FALSE
                      start magnetization = FALSE
                      start magnetization = FALSE

                        TOTAL ATOM NUMBER = 20

 DIRECT COORDINATES
         atom                   x                   y                   z                 mag                  vx                  vy                  vz
     taud_Al1                   0                   0         0.000133597                   0                   0                   0                   0
     taud_Al2            0.333333            0.333333           0.0497587                   0                   0                   0                   0
     taud_Al3            0.666667            0.666667           0.0997942                   0                   0                   0                   0
     taud_Al4                   0                   0            0.149626                   0                   0                   0                   0
     taud_Al5            0.333333            0.333333            0.199557                   0                   0                   0                   0
     taud_Al6            0.766667            0.766667            0.250496                   0                   0                   0                   0
     taud_Al7                 0.1                 0.1            0.300341                   0                   0                   0                   0
     taud_Al8            0.433333            0.433333            0.350322                   0                   0                   0                   0
     taud_Al9            0.766667            0.766667            0.399931                   0                   0                   0                   0
    taud_Al10                 0.1                 0.1                0.45                   0                   0                   0                   0
    taud_Al11            0.766667            0.766667            0.500069                   0                   0                   0                   0
    taud_Al12            0.433333            0.433333            0.549678                   0                   0                   0                   0
    taud_Al13                 0.1                 0.1            0.599659                   0                   0                   0                   0
    taud_Al14            0.766667            0.766667            0.649504                   0                   0                   0                   0
    taud_Al15            0.333333            0.333333            0.700443                   0                   0                   0                   0
    taud_Al16                   0                   0            0.750374                   0                   0                   0                   0
    taud_Al17            0.666667            0.666667            0.800206                   0                   0                   0                   0
    taud_Al18            0.333333            0.333333            0.850241                   0                   0                   0                   0
    taud_Al19                   0                   0            0.899866                   0                   0                   0                   0
    taud_Al20            0.666667            0.666667                0.95                   0                   0                   0                   0


                          Volume (Bohr^3) = 2108.05
                             Volume (A^3) = 312.381

 Lattice vectors: (Cartesian coordinate: in unit of a_0)
            +0.707107                  +0                  +0
            +0.353553           +0.612372                  +0
                   +0                  +0             +11.547
 Reciprocal vectors: (Cartesian coordinate: in unit of 2 pi/a_0)
             +1.41421           -0.816497                  +0
                   +0            +1.63299                  -0
                   +0                  -0          +0.0866025




 >>>>>>>>>>>>>>>>>>>>>>>>>>>>>>>>>>>>>>>>>>>>>>>>>>>>>>>>>>>>>>>>>>>>>>
 |                                                                    |
 | Reading pseudopotentials files:                                    |
 | The pseudopotential file is in UPF format. The 'NC' indicates that |
 | the type of pseudopotential is 'norm conserving'. Functional of    |
 | exchange and correlation is decided by 4 given parameters in UPF   |
 | file.  We also read in the 'core correction' if there exists.      |
 | Also we can read the valence electrons number and the maximal      |
 | angular momentum used in this pseudopotential. We also read in the |
 | trail wave function, trail atomic density and local-pseudopotential|
 | on logrithmic grid. The non-local pseudopotential projector is also|
 | read in if there is any.                                           |
 |                                                                    |
 <<<<<<<<<<<<<<<<<<<<<<<<<<<<<<<<<<<<<<<<<<<<<<<<<<<<<<<<<<<<<<<<<<<<<<




                PAO radial cut off (Bohr) = 15

 Read in pseudopotential file is Al_ONCV_PBE-1.2.upf
                     pseudopotential type = NC
                            functional Ex = PBE
                            functional Ec = 
                          functional GCEx = 
                          functional GCEc = 
                 nonlocal core correction = 0
                        valence electrons = 11
                                     lmax = 1
                           number of zeta = 0
                     number of projectors = 4
                           L of projector = 0
                           L of projector = 0
                           L of projector = 1
                           L of projector = 1
     initial pseudo atomic orbital number = 0
                                   NLOCAL = 180

 SETUP THE ELECTRONS NUMBER
            electron number of element Al = 11
      total electron number of element Al = 220
                           occupied bands = 110
                                   NBANDS = 130
 DONE : SETUP UNITCELL Time : 0.0109358 (SEC)





 >>>>>>>>>>>>>>>>>>>>>>>>>>>>>>>>>>>>>>>>>>>>>>>>>>>>>>>>>>>>>>>>>>>>>>
 |                                                                    |
 | Doing symmetry analysis:                                           |
 | We calculate the norm of 3 vectors and the angles between them,    |
 | the type of Bravais lattice is given. We can judge if the unticell |
 | is a primitive cell. Finally we give the point group operation for |
 | this unitcell. We we use the point group operations to do symmetry |
 | analysis on given k-point mesh and the charge density.             |
 |                                                                    |
 <<<<<<<<<<<<<<<<<<<<<<<<<<<<<<<<<<<<<<<<<<<<<<<<<<<<<<<<<<<<<<<<<<<<<<




 LATTICE VECTORS: (CARTESIAN COORDINATE: IN UNIT OF A0)
            +0.707107                  +0                  +0
            +0.353553           +0.612372                  +0
                   +0                  +0             +11.547
                       right hand lattice = 1
                                   NORM_A = 0.707107
                                   NORM_B = 0.707107
                                   NORM_C = 11.547
                           ALPHA (DEGREE) = 60
                           BETA  (DEGREE) = 90
                           GAMMA (DEGREE) = 90
                             BRAVAIS TYPE = 4
                     BRAVAIS LATTICE NAME = 04. Hexagonal cell
 STANDARD LATTICE VECTORS: (CARTESIAN COORDINATE: IN UNIT OF A0)
            +0.707107                  +0                  +0
            +0.353553           +0.612372                  +0
                   +0                  +0             +11.547
                                    IBRAV = 4
                                  BRAVAIS = HEXAGONAL CELL
                       LATTICE CONSTANT A = 34.7347
                                C/A RATIO = 0.667046
                                    ibrav = 4
                        ROTATION MATRICES = 24
              PURE POINT GROUP OPERATIONS = 2
                   SPACE GROUP OPERATIONS = 2
                                       C2 = 0
                                       C3 = 0
                                       C4 = 0
                                       C6 = 0
                                       S1 = 1
                                       S3 = 0
                                       S4 = 0
                                       S6 = 0
                              POINT GROUP = C_1h
 DONE : SYMMETRY Time : 0.0448338 (SEC)





 >>>>>>>>>>>>>>>>>>>>>>>>>>>>>>>>>>>>>>>>>>>>>>>>>>>>>>>>>>>>>>>>>>>>>>
 |                                                                    |
 | Setup K-points                                                     |
 | We setup the k-points according to input parameters.               |
 | The reduced k-points are set according to symmetry operations.     |
 | We treat the spin as another set of k-points.                      |
 |                                                                    |
 <<<<<<<<<<<<<<<<<<<<<<<<<<<<<<<<<<<<<<<<<<<<<<<<<<<<<<<<<<<<<<<<<<<<<<





 SETUP K-POINTS
                                    nspin = 1
                   Input type of k points = Monkhorst-Pack(Gamma)
                                   nkstot = 100
                               nkstot_ibz = 31
      IBZ             DirectX             DirectY             DirectZ              Weight    ibz2bz
        1                   0                   0                   0                0.01         0
        2                   0                 0.9                   0                0.04         1
        3                 0.8                   0                   0                0.04         2
        4                   0                 0.7                   0                0.04         3
        5                 0.6                   0                   0                0.04         4
        6                   0                 0.5                   0                0.02         5
        7                 0.9                 0.9                   0                0.02        11
        8                 0.9                 0.8                   0                0.04        12
        9                 0.9                 0.7                   0                0.04        13
       10                 0.9                 0.6                   0                0.04        14
       11                 0.9                 0.5                   0                0.04        15
       12                 0.9                 0.4                   0                0.04        16
       13                 0.9                 0.3                   0                0.04        17
       14                 0.9                 0.2                   0                0.04        18
       15                 0.9                 0.1                   0                0.02        19
       16                 0.8                 0.8                   0                0.02        22
       17                 0.8                 0.7                   0                0.04        23
       18                 0.8                 0.6                   0                0.04        24
       19                 0.8                 0.5                   0                0.04        25
       20                 0.8                 0.4                   0                0.04        26
       21                 0.8                 0.3                   0                0.04        27
       22                 0.2                 0.8                   0                0.02        28
       23                 0.7                 0.7                   0                0.02        33
       24                 0.7                 0.6                   0                0.04        34
       25                 0.7                 0.5                   0                0.04        35
       26                 0.7                 0.4                   0                0.04        36
       27                 0.7                 0.3                   0                0.02        37
       28                 0.6                 0.6                   0                0.02        44
       29                 0.6                 0.5                   0                0.04        45
       30                 0.4                 0.6                   0                0.02        46
       31                 0.5                 0.5                   0                0.01        55
                               nkstot now = 31

  KPOINTS            DIRECT_X            DIRECT_Y            DIRECT_Z              WEIGHT
        1                   0                   0                   0                0.01
        2                   0                 0.9                   0                0.04
        3                 0.8                   0                   0                0.04
        4                   0                 0.7                   0                0.04
        5                 0.6                   0                   0                0.04
        6                   0                 0.5                   0                0.02
        7                 0.9                 0.9                   0                0.02
        8                 0.9                 0.8                   0                0.04
        9                 0.9                 0.7                   0                0.04
       10                 0.9                 0.6                   0                0.04
       11                 0.9                 0.5                   0                0.04
       12                 0.9                 0.4                   0                0.04
       13                 0.9                 0.3                   0                0.04
       14                 0.9                 0.2                   0                0.04
       15                 0.9                 0.1                   0                0.02
       16                 0.8                 0.8                   0                0.02
       17                 0.8                 0.7                   0                0.04
       18                 0.8                 0.6                   0                0.04
       19                 0.8                 0.5                   0                0.04
       20                 0.8                 0.4                   0                0.04
       21                 0.8                 0.3                   0                0.04
       22                 0.2                 0.8                   0                0.02
       23                 0.7                 0.7                   0                0.02
       24                 0.7                 0.6                   0                0.04
       25                 0.7                 0.5                   0                0.04
       26                 0.7                 0.4                   0                0.04
       27                 0.7                 0.3                   0                0.02
       28                 0.6                 0.6                   0                0.02
       29                 0.6                 0.5                   0                0.04
       30                 0.4                 0.6                   0                0.02
       31                 0.5                 0.5                   0                0.01

           k-point number in this process = 31
       minimum distributed K point number = 31

  KPOINTS         CARTESIAN_X         CARTESIAN_Y         CARTESIAN_Z              WEIGHT
        1                   0                   0                   0                0.02
        2                   0             1.46969                   0                0.08
        3             1.13137           -0.653197                   0                0.08
        4                   0              1.1431                   0                0.08
        5            0.848528           -0.489898                   0                0.08
        6                   0            0.816497                   0                0.04
        7             1.27279            0.734847                   0                0.04
        8             1.27279            0.571548                   0                0.08
        9             1.27279            0.408248                   0                0.08
       10             1.27279            0.244949                   0                0.08
       11             1.27279           0.0816497                   0                0.08
       12             1.27279          -0.0816497                   0                0.08
       13             1.27279           -0.244949                   0                0.08
       14             1.27279           -0.408248                   0                0.08
       15             1.27279           -0.571548                   0                0.04
       16             1.13137            0.653197                   0                0.04
       17             1.13137            0.489898                   0                0.08
       18             1.13137            0.326599                   0                0.08
       19             1.13137            0.163299                   0                0.08
       20             1.13137                   0                   0                0.08
       21             1.13137           -0.163299                   0                0.08
       22            0.282843              1.1431                   0                0.04
       23            0.989949            0.571548                   0                0.04
       24            0.989949            0.408248                   0                0.08
       25            0.989949            0.244949                   0                0.08
       26            0.989949           0.0816497                   0                0.08
       27            0.989949          -0.0816497                   0                0.04
       28            0.848528            0.489898                   0                0.04
       29            0.848528            0.326599                   0                0.08
       30            0.565685            0.653197                   0                0.04
       31            0.707107            0.408248                   0                0.02

  KPOINTS            DIRECT_X            DIRECT_Y            DIRECT_Z              WEIGHT
        1                   0                   0                   0                0.02
        2                   0                 0.9                   0                0.08
        3                 0.8                   0                   0                0.08
        4                   0                 0.7                   0                0.08
        5                 0.6                   0                   0                0.08
        6                   0                 0.5                   0                0.04
        7                 0.9                 0.9                   0                0.04
        8                 0.9                 0.8                   0                0.08
        9                 0.9                 0.7                   0                0.08
       10                 0.9                 0.6                   0                0.08
       11                 0.9                 0.5                   0                0.08
       12                 0.9                 0.4                   0                0.08
       13                 0.9                 0.3                   0                0.08
       14                 0.9                 0.2                   0                0.08
       15                 0.9                 0.1                   0                0.04
       16                 0.8                 0.8                   0                0.04
       17                 0.8                 0.7                   0                0.08
       18                 0.8                 0.6                   0                0.08
       19                 0.8                 0.5                   0                0.08
       20                 0.8                 0.4                   0                0.08
       21                 0.8                 0.3                   0                0.08
       22                 0.2                 0.8                   0                0.04
       23                 0.7                 0.7                   0                0.04
       24                 0.7                 0.6                   0                0.08
       25                 0.7                 0.5                   0                0.08
       26                 0.7                 0.4                   0                0.08
       27                 0.7                 0.3                   0                0.04
       28                 0.6                 0.6                   0                0.04
       29                 0.6                 0.5                   0                0.08
       30                 0.4                 0.6                   0                0.04
       31                 0.5                 0.5                   0                0.02
 DONE : INIT K-POINTS Time : 0.0454139 (SEC)





 >>>>>>>>>>>>>>>>>>>>>>>>>>>>>>>>>>>>>>>>>>>>>>>>>>>>>>>>>>>>>>>>>>>>>>
 |                                                                    |
 | Setup plane waves:                                                 |
 | Use the energy cutoff and the lattice vectors to generate the      |
 | dimensions of FFT grid. The number of FFT grid on each processor   |
 | is 'nrxx'. The number of plane wave basis in reciprocal space is   |
 | different for charege/potential and wave functions. We also set    |
 | the 'sticks' for the parallel of FFT.                              |
 |                                                                    |
 <<<<<<<<<<<<<<<<<<<<<<<<<<<<<<<<<<<<<<<<<<<<<<<<<<<<<<<<<<<<<<<<<<<<<<





 SETUP THE PLANE WAVE BASIS
     energy cutoff for wavefunc (unit:Ry) = 40
            [fft grid for wave functions] = 24, 24, 360
          [fft grid for charge/potential] = 24, 24, 360
                      [fft grid division] = 1, 1, 1
      [big fft grid for charge/potential] = 24, 24, 360
                                     nbxx = 13248
                                     nrxx = 13248

 SETUP PLANE WAVES FOR CHARGE/POTENTIAL
                    number of plane waves = 72325
                         number of sticks = 313

 SETUP PLANE WAVES FOR WAVE FUNCTIONS
                    number of plane waves = 15353
                         number of sticks = 109

 PARALLEL PW FOR CHARGE/POTENTIAL
     PROC   COLUMNS(POT)             PW
        1             20           4516
        2             19           4503
        3             19           4503
        4             19           4503
        5             20           4546
        6             19           4503
        7             20           4514
        8             20           4514
        9             20           4546
       10             20           4546
       11             19           4503
       12             20           4546
       13             19           4503
       14             20           4536
       15             19           4501
       16             20           4542
 --------------- sum -------------------
       16            313          72325

 PARALLEL PW FOR WAVE FUNCTIONS
     PROC     COLUMNS(W)             PW
        1              7            969
        2              7            969
        3              7            969
        4              7            969
        5              7            969
        6              6            936
        7              7            967
        8              7            955
        9              7            955
       10              7            985
       11              7            985
       12              6            926
       13              6            934
       14              7            963
       15              7            951
       16              7            951
 --------------- sum -------------------
       16            109          15353

 SETUP COORDINATES OF PLANE WAVES
              number of total plane waves = 72325

 SETUP COORDINATES OF PLANE WAVES
                            number of |g| = 2142
                                  max |g| = 227.874
                                  min |g| = 0
 DONE : INIT PLANEWAVE Time : 0.084282 (SEC)

                                     npwx = 634

 SETUP NONLOCAL PSEUDOPOTENTIALS IN PLANE WAVE BASIS
 Al non-local projectors:
 projector 1 L=0
 projector 2 L=0
 projector 3 L=1
 projector 4 L=1
      TOTAL NUMBER OF NONLOCAL PROJECTORS = 160
 DONE : LOCAL POTENTIAL Time : 0.147762 (SEC)


 Init Non-Local PseudoPotential table : 
 Init Non-Local-Pseudopotential done.
 DONE : NON-LOCAL POTENTIAL Time : 0.159587 (SEC)

                                start_pot = atomic
 DONE : INIT POTENTIAL Time : 0.199415 (SEC)


 Make real space PAO into reciprocal space.
       max mesh points in Pseudopotential = 601
     dq(describe PAO in reciprocal space) = 0.01
                                    max q = 764

 number of pseudo atomic orbitals for Al is 0
 DONE : INIT BASIS Time : 9.16783 (SEC)


 -------------------------------------------
 SELF-CONSISTENT
 -------------------------------------------

 PW ALGORITHM --------------- ION=   1  ELEC=   1--------------------------------
  K-point    CG iter num      Time(Sec)
        1       8.476923       1.867595
        2       8.753846       1.907743
        3       8.669231       1.936890
        4       8.769231       1.944602
        5       8.615385       1.873300
        6       8.615385       1.918668
        7       8.730769       1.953100
        8       8.453846       1.946780
        9       8.661538       1.968731
       10       8.607692       1.915462
       11       8.761538       1.975399
       12       8.692308       1.949832
       13       8.700000       1.946265
       14       8.592308       1.964744
       15       8.507692       1.906405
       16       8.669231       1.939811
       17       8.661538       1.971621
       18       8.607692       1.898811
       19       8.515385       1.919353
       20       8.561538       1.914272
       21       8.653846       1.943141
       22       8.484615       1.855536
       23       8.753846       1.951074
       24       8.738462       1.993440
       25       8.630769       1.928226
       26       8.461538       1.892462
       27       8.507692       1.915704
       28       8.692308       1.930488
       29       8.700000       1.961434
       30       8.592308       1.889661
       31       8.561538       1.906195
 Notice: Threshold on eigenvalues was too large.
 dr2=0.413603 < diago_error=2.200000
 Origin ETHR = 0.010000
 New    ETHR = 0.000188
  K-point    CG iter num      Time(Sec)
        1       5.776923       1.533186
        2       5.884615       1.496260
        3       5.892308       1.540021
        4       5.661538       1.432390
        5       6.053846       1.561856
        6       6.138462       1.499686
        7       5.946154       1.596274
        8       6.107692       1.643689
        9       6.376923       1.725650
       10       6.730769       1.786871
       11       6.869231       1.749757
       12       6.500000       1.707727
       13       6.446154       1.705762
       14       6.369231       1.695173
       15       6.400000       1.718765
       16       5.753846       1.492466
       17       6.469231       1.719568
       18       6.969231       1.839984
       19       7.253846       1.890245
       20       7.476923       1.922113
       21       7.530769       2.003683
       22       7.146154       1.835739
       23       5.753846       1.488969
       24       6.638462       1.734657
       25       7.115385       1.871086
       26       7.969231       2.054158
       27       7.900000       2.030183
       28       6.253846       1.616898
       29       6.538462       1.687515
       30       7.253846       1.838052
       31       5.961538       1.506844

 Density error is 0.430610710940
                          Error Threshold = 0.000188001474

       Energy                       Rydberg                            eV
   E_KohnSham            -2767.240825497281           -37650.242964986704
     E_Harris            -2767.297689656721           -37651.016641567068
      E_Fermi               +0.877382707940              +11.937404154658

 PW ALGORITHM --------------- ION=   1  ELEC=   2--------------------------------
  K-point    CG iter num      Time(Sec)
        1       2.000000       0.461123
        2       2.000000       0.455249
        3       2.000000       0.431879
        4       2.000000       0.457430
        5       2.000000       0.454886
        6       2.000000       0.450305
        7       2.038462       0.489858
        8       2.000000       0.433652
        9       2.000000       0.464052
       10       2.000000       0.463750
       11       2.000000       0.433702
       12       2.000000       0.475447
       13       2.038462       0.463787
       14       2.000000       0.466178
       15       2.000000       0.463432
       16       2.000000       0.432498
       17       2.000000       0.462027
       18       2.000000       0.458910
       19       2.000000       0.443878
       20       2.000000       0.478746
       21       2.000000       0.443307
       22       2.000000       0.455308
       23       2.000000       0.461777
       24       2.000000       0.432016
       25       2.000000       0.465856
       26       2.000000       0.457858
       27       2.000000       0.455387
       28       2.000000       0.478761
       29       2.000000       0.429756
       30       2.000000       0.459637
       31       2.000000       0.462675

 Density error is 0.491023449456
                          Error Threshold = 0.000195732141

       Energy                       Rydberg                            eV
   E_KohnSham            -2766.893390027376           -37645.515862908695
     E_Harris            -2767.250993415211           -37650.381306607356
      E_Fermi               +0.875718377355              +11.914759775344

 PW ALGORITHM --------------- ION=   1  ELEC=   3--------------------------------
  K-point    CG iter num      Time(Sec)
        1       5.792308       1.508502
        2       6.046154       1.624302
        3       6.676923       1.784368
        4       6.815385       1.759493
        5       7.184615       1.881041
        6       6.930769       1.799840
        7       6.107692       1.614750
        8       6.476923       1.741751
        9       7.238462       1.901943
       10       7.900000       2.090718
       11       7.569231       2.010805
       12       7.423077       1.947725
       13       7.953846       2.104157
       14       6.869231       1.812416
       15       6.676923       1.779518
       16       6.569231       1.752374
       17       6.900000       1.823180
       18       7.923077       2.098858
       19       7.823077       2.038835
       20       7.738462       2.047491
       21       7.800000       2.087242
       22       7.746154       1.988824
       23       6.869231       1.795779
       24       7.792308       2.078225
       25       8.346154       2.213346
       26       7.915385       2.087948
       27       8.069231       2.107763
       28       7.223077       1.942393
       29       7.707692       2.018875
       30       7.707692       2.009452
       31       6.876923       1.840681

 Density error is 884.669185593537
                          Error Threshold = 0.000195732141

       Energy                       Rydberg                            eV
   E_KohnSham            -2750.682237161501           -37424.951812783758
     E_Harris            -2773.737190389838           -37738.630543812636
      E_Fermi               +0.818816264974              +11.140566818722

 PW ALGORITHM --------------- ION=   1  ELEC=   4--------------------------------
  K-point    CG iter num      Time(Sec)
        1       7.253846       2.006822
        2       7.515385       1.939149
        3       8.261538       2.174391
        4       8.453846       2.187676
        5       8.692308       2.281223
        6       8.500000       2.203305
        7       7.769231       2.063893
        8       7.730769       2.052433
        9       8.161538       2.170363
       10       8.430769       2.221849
       11       8.515385       2.254402
       12       8.500000       2.227579
       13       8.092308       2.132204
       14       7.938462       2.107602
       15       8.200000       2.199451
       16       8.107692       2.145893
       17       7.984615       2.098360
       18       8.223077       2.133782
       19       8.584615       2.245999
       20       8.576923       2.256691
       21       8.592308       2.265739
       22       8.038462       2.041546
       23       8.161538       2.146290
       24       8.876923       2.333346
       25       8.600000       2.265744
       26       8.300000       2.184481
       27       8.161538       2.133750
       28       8.961538       2.389142
       29       8.461538       2.213458
       30       8.300000       2.145055
       31       8.353846       2.205442

 Density error is 3118.626558425260
                          Error Threshold = 0.000195732141

       Energy                       Rydberg                            eV
   E_KohnSham            -2753.506187215901           -37463.373624391010
     E_Harris            -2781.156500252854           -37839.575433177255
      E_Fermi               +0.769330296552              +10.467275677136

 PW ALGORITHM --------------- ION=   1  ELEC=   5--------------------------------
  K-point    CG iter num      Time(Sec)
        1       6.707692       1.780180
        2       6.376923       1.680719
        3       6.661538       1.796765
        4       6.753846       1.739904
        5       7.530769       1.947431
        6       7.276923       1.860999
        7       6.069231       1.624071
        8       6.846154       1.864031
        9       6.723077       1.799969
       10       7.230769       1.916005
       11       8.276923       2.171875
       12       8.269231       2.148405
       13       7.638462       2.057348
       14       7.100000       1.911124
       15       6.607692       1.776527
       16       6.476923       1.770731
       17       6.830769       1.830675
       18       7.823077       2.104788
       19       8.676923       2.270190
       20       8.761538       2.300398
       21       8.507692       2.276149
       22       7.361538       1.907799
       23       6.676923       1.766155
       24       7.561538       1.989241
       25       8.392308       2.232182
       26       9.838462       2.536879
       27      10.092308       2.713699
       28       7.430769       1.942745
       29       8.307692       2.167338
       30       8.846154       2.292620
       31       7.323077       1.854718

 Density error is 8.546881134873
                          Error Threshold = 0.000195732141

       Energy                       Rydberg                            eV
   E_KohnSham            -2766.728203472441           -37643.268384528579
     E_Harris            -2767.138923746471           -37648.856520539521
      E_Fermi               +0.866111571917              +11.784052481803

 PW ALGORITHM --------------- ION=   1  ELEC=   6--------------------------------
  K-point    CG iter num      Time(Sec)
        1       5.046154       1.343130
        2       4.300000       1.118912
        3       4.361538       1.167126
        4       3.207692       0.795956
        5       3.061538       0.765661
        6       2.684615       0.673440
        7       4.346154       1.166161
        8       4.830769       1.327600
        9       4.661538       1.244752
       10       3.961538       1.035348
       11       3.592308       0.945820
       12       3.700000       0.957152
       13       4.192308       1.125295
       14       4.715385       1.261696
       15       4.776923       1.288832
       16       4.307692       1.155465
       17       4.815385       1.309025
       18       4.769231       1.285711
       19       4.353846       1.152441
       20       4.469231       1.194680
       21       4.253846       1.123583
       22       4.953846       1.313774
       23       3.200000       0.811850
       24       4.184615       1.118321
       25       4.261538       1.133938
       26       5.015385       1.343760
       27       4.215385       1.117567
       28       3.223077       0.839636
       29       3.653846       0.953043
       30       4.123077       1.078559
       31       2.800000       0.698852

 Density error is 184.795457184076
                          Error Threshold = 0.000195732141

       Energy                       Rydberg                            eV
   E_KohnSham            -2765.938008711839           -37632.517233254650
     E_Harris            -2767.893162434436           -37659.118464347877
      E_Fermi               +0.858945159984              +11.686548445307

 PW ALGORITHM --------------- ION=   1  ELEC=   7--------------------------------
  K-point    CG iter num      Time(Sec)
        1       4.992308       1.326563
        2       5.084615       1.348485
        3       4.346154       1.138953
        4       3.323077       0.824919
        5       3.053846       0.781154
        6       2.761538       0.667787
        7       5.338462       1.460339
        8       5.592308       1.502162
        9       4.930769       1.311493
       10       4.061538       1.081356
       11       3.869231       1.063417
       12       3.992308       1.064477
       13       4.130769       1.089845
       14       4.830769       1.307031
       15       5.869231       1.596365
       16       4.161538       1.105154
       17       5.261538       1.415407
       18       5.869231       1.584196
       19       4.992308       1.326105
       20       4.707692       1.254234
       21       5.292308       1.451206
       22       5.423077       1.408488
       23       3.253846       0.823652
       24       4.030769       1.060640
       25       4.976923       1.334668
       26       4.353846       1.147273
       27       4.500000       1.199154
       28       2.946154       0.729962
       29       3.861538       1.025018
       30       4.730769       1.248034
       31       2.830769       0.719882

 Density error is 16.846238547684
                          Error Threshold = 0.000195732141

       Energy                       Rydberg                            eV
   E_KohnSham            -2766.959940964665           -37646.421334863058
     E_Harris            -2767.204586992305           -37649.749914832028
      E_Fermi               +0.863051840525              +11.742422700525

 PW ALGORITHM --------------- ION=   1  ELEC=   8--------------------------------
  K-point    CG iter num      Time(Sec)
        1       4.176923       1.103555
        2       3.046154       0.770731
        3       2.661538       0.622754
        4       2.300000       0.560075
        5       2.300000       0.518099
        6       2.276923       0.536994
        7       3.053846       0.759398
        8       4.053846       1.074675
        9       3.415385       0.897454
       10       2.592308       0.629367
       11       2.823077       0.703745
       12       2.984615       0.754754
       13       3.100000       0.778259
       14       3.438462       0.902865
       15       3.900000       1.035656
       16       2.623077       0.640046
       17       3.115385       0.789221
       18       2.853846       0.720353
       19       2.746154       0.659965
       20       2.815385       0.730661
       21       2.784615       0.685318
       22       3.000000       0.732590
       23       2.292308       0.545968
       24       3.053846       0.768079
       25       2.700000       0.683828
       26       2.900000       0.706335
       27       2.746154       0.704470
       28       2.361538       0.542299
       29       2.915385       0.751496
       30       2.723077       0.661580
       31       2.284615       0.545672

 Density error is 2.007753683694
                          Error Threshold = 0.000195732141

       Energy                       Rydberg                            eV
   E_KohnSham            -2767.044428453024           -37647.570846114453
     E_Harris            -2767.105912072082           -37648.407373667294
      E_Fermi               +0.867039522246              +11.796677893747

 PW ALGORITHM --------------- ION=   1  ELEC=   9--------------------------------
  K-point    CG iter num      Time(Sec)
        1       4.284615       1.129534
        2       2.807692       0.685095
        3       2.453846       0.594864
        4       2.207692       0.513619
        5       2.200000       0.490722
        6       2.176923       0.526510
        7       2.846154       0.684861
        8       2.669231       0.677386
        9       2.584615       0.623767
       10       2.523077       0.626152
       11       2.323077       0.549065
       12       2.323077       0.570828
       13       2.600000       0.630156
       14       2.723077       0.687661
       15       2.923077       0.788547
       16       2.369231       0.566877
       17       2.753846       0.691010
       18       2.546154       0.606059
       19       2.453846       0.607853
       20       2.415385       0.570120
       21       2.469231       0.606558
       22       2.500000       0.582373
       23       2.192308       0.520004
       24       2.669231       0.657974
       25       2.500000       0.611242
       26       2.323077       0.548951
       27       2.323077       0.554929
       28       2.200000       0.522543
       29       2.338462       0.555942
       30       2.461538       0.595326
       31       2.184615       0.504866

 Density error is 3.233785601425
                          Error Threshold = 0.000195732141

       Energy                       Rydberg                            eV
   E_KohnSham            -2767.029335757839           -37647.365499461761
     E_Harris            -2767.112884895975           -37648.502243803392
      E_Fermi               +0.866914768772              +11.794980535654

 PW ALGORITHM --------------- ION=   1  ELEC=  10--------------------------------
  K-point    CG iter num      Time(Sec)
        1       4.192308       1.105540
        2       2.746154       0.641900
        3       2.553846       0.637991
        4       2.253846       0.493503
        5       2.230769       0.541960
        6       2.230769       0.498750
        7       2.769231       0.707206
        8       2.869231       0.686857
        9       2.800000       0.708297
       10       2.623077       0.635807
       11       2.346154       0.571247
       12       2.353846       0.555756
       13       2.707692       0.681135
       14       2.707692       0.665135
       15       2.976923       0.741078
       16       2.469231       0.597899
       17       2.853846       0.703954
       18       2.884615       0.737557
       19       2.607692       0.603956
       20       2.438462       0.612192
       21       2.553846       0.595639
       22       2.746154       0.679038
       23       2.246154       0.501037
       24       2.730769       0.697286
       25       2.600000       0.627263
       26       2.438462       0.593394
       27       2.392308       0.560993
       28       2.223077       0.540750
       29       2.384615       0.538945
       30       2.523077       0.632909
       31       2.238462       0.499231

 Density error is 2.623917355133
                          Error Threshold = 0.000195732141

       Energy                       Rydberg                            eV
   E_KohnSham            -2767.051364103293           -37647.665210477440
     E_Harris            -2767.112234343425           -37648.493392581870
      E_Fermi               +0.866950338866              +11.795464491608

 PW ALGORITHM --------------- ION=   1  ELEC=  11--------------------------------
  K-point    CG iter num      Time(Sec)
        1       3.207692       0.787324
        2       2.515385       0.610441
        3       2.392308       0.562842
        4       2.146154       0.510500
        5       2.146154       0.469607
        6       2.123077       0.493166
        7       2.476923       0.602129
        8       2.484615       0.601419
        9       2.484615       0.602049
       10       2.346154       0.563455
       11       2.223077       0.529521
       12       2.230769       0.529961
       13       2.415385       0.584656
       14       2.438462       0.586805
       15       2.492308       0.604487
       16       2.438462       0.584806
       17       2.530769       0.626223
       18       2.384615       0.565498
       19       2.346154       0.566550
       20       2.238462       0.500074
       21       2.307692       0.580310
       22       2.353846       0.521099
       23       2.146154       0.507585
       24       2.376923       0.566801
       25       2.276923       0.543695
       26       2.276923       0.544379
       27       2.246154       0.534377
       28       2.153846       0.509910
       29       2.230769       0.494525
       30       2.353846       0.587451
       31       2.123077       0.465244

 Density error is 0.691021100480
                          Error Threshold = 0.000195732141

       Energy                       Rydberg                            eV
   E_KohnSham            -2767.077423774643           -37648.019770495819
     E_Harris            -2767.092338969473           -37648.222702132283
      E_Fermi               +0.868893635017              +11.821904392167

 PW ALGORITHM --------------- ION=   1  ELEC=  12--------------------------------
  K-point    CG iter num      Time(Sec)
        1       2.761538       0.640454
        2       2.146154       0.504127
        3       2.084615       0.479451
        4       2.007692       0.455575
        5       2.023077       0.476933
        6       2.007692       0.428541
        7       2.246154       0.539790
        8       2.084615       0.485275
        9       2.153846       0.513829
       10       2.100000       0.498032
       11       2.046154       0.446792
       12       2.046154       0.494643
       13       2.138462       0.496211
       14       2.146154       0.508777
       15       2.107692       0.499459
       16       2.115385       0.533492
       17       2.176923       0.539693
       18       2.092308       0.472464
       19       2.076923       0.484919
       20       2.030769       0.475232
       21       2.076923       0.457532
       22       2.100000       0.501827
       23       2.023077       0.455645
       24       2.115385       0.498500
       25       2.053846       0.482663
       26       2.069231       0.453902
       27       2.038462       0.489298
       28       2.030769       0.463854
       29       2.046154       0.479587
       30       2.061538       0.479359
       31       2.015385       0.435964

 Density error is 0.439161958499
                          Error Threshold = 0.000195732141

       Energy                       Rydberg                            eV
   E_KohnSham            -2767.077292548277           -37648.017985069513
     E_Harris            -2767.088867066310           -37648.175464466367
      E_Fermi               +0.869110343700              +11.824852865060

 PW ALGORITHM --------------- ION=   1  ELEC=  13--------------------------------
  K-point    CG iter num      Time(Sec)
        1       2.900000       0.690026
        2       2.338462       0.568942
        3       2.230769       0.499114
        4       2.092308       0.483978
        5       2.084615       0.480292
        6       2.084615       0.479989
        7       2.238462       0.539430
        8       2.123077       0.468553
        9       2.115385       0.517364
       10       2.138462       0.488907
       11       2.061538       0.485228
       12       2.069231       0.486767
       13       2.192308       0.504058
       14       2.192308       0.538946
       15       2.161538       0.481903
       16       2.269231       0.550712
       17       2.138462       0.495806
       18       2.115385       0.498066
       19       2.100000       0.492693
       20       2.084615       0.457521
       21       2.092308       0.509975
       22       2.161538       0.484694
       23       2.069231       0.486216
       24       2.138462       0.505708
       25       2.107692       0.473333
       26       2.130769       0.526763
       27       2.092308       0.460816
       28       2.076923       0.486168
       29       2.076923       0.487407
       30       2.107692       0.477802
       31       2.084615       0.505845

 Density error is 0.543914804471
                          Error Threshold = 0.000195732141

       Energy                       Rydberg                            eV
   E_KohnSham            -2767.079091186688           -37648.042456800540
     E_Harris            -2767.094227978489           -37648.248403418482
      E_Fermi               +0.869261543458              +11.826910043307

 PW ALGORITHM --------------- ION=   1  ELEC=  14--------------------------------
  K-point    CG iter num      Time(Sec)
        1       3.500000       0.921941
        2       2.430769       0.575711
        3       2.246154       0.537386
        4       2.100000       0.465937
        5       2.115385       0.515267
        6       2.092308       0.453430
        7       2.676923       0.689447
        8       2.223077       0.509283
        9       2.346154       0.567312
       10       2.246154       0.533563
       11       2.176923       0.523214
       12       2.176923       0.522461
       13       2.238462       0.526842
       14       2.330769       0.577080
       15       2.269231       0.513946
       16       2.330769       0.586576
       17       2.476923       0.574886
       18       2.276923       0.571715
       19       2.238462       0.510274
       20       2.138462       0.507448
       21       2.200000       0.528559
       22       2.261538       0.526616
       23       2.092308       0.496363
       24       2.400000       0.563614
       25       2.192308       0.543335
       26       2.184615       0.487902
       27       2.161538       0.514276
       28       2.115385       0.493417
       29       2.138462       0.503788
       30       2.307692       0.551440
       31       2.100000       0.462571

 Density error is 6.587105205998
                          Error Threshold = 0.000195732141

       Energy                       Rydberg                            eV
   E_KohnSham            -2767.036731500979           -37647.466123709411
     E_Harris            -2767.113783240459           -37648.514466407141
      E_Fermi               +0.866093845324              +11.783811299140

 PW ALGORITHM --------------- ION=   1  ELEC=  15--------------------------------
  K-point    CG iter num      Time(Sec)
        1       4.307692       1.144394
        2       2.907692       0.701210
        3       2.476923       0.614970
        4       2.153846       0.468783
        5       2.169231       0.532832
        6       2.130769       0.473799
        7       2.915385       0.757874
        8       3.123077       0.788196
        9       2.815385       0.714402
       10       2.684615       0.664763
       11       2.407692       0.588701
       12       2.400000       0.585655
       13       2.784615       0.698796
       14       2.753846       0.709999
       15       3.084615       0.780294
       16       2.530769       0.638414
       17       2.861538       0.718107
       18       2.669231       0.662039
       19       2.584615       0.636302
       20       2.400000       0.585158
       21       2.515385       0.618098
       22       2.730769       0.723459
       23       2.161538       0.511374
       24       2.584615       0.637278
       25       2.546154       0.624941
       26       2.338462       0.555711
       27       2.300000       0.553555
       28       2.169231       0.514046
       29       2.438462       0.589547
       30       2.546154       0.618944
       31       2.146154       0.499658

 Density error is 16.879963168107
                          Error Threshold = 0.000195732141

       Energy                       Rydberg                            eV
   E_KohnSham            -2766.988636055825           -37646.811751607464
     E_Harris            -2767.159901491923           -37649.141937408858
      E_Fermi               +0.862646882849              +11.736912968690

 PW ALGORITHM --------------- ION=   1  ELEC=  16--------------------------------
  K-point    CG iter num      Time(Sec)
        1       4.615385       1.226017
        2       2.853846       0.693429
        3       2.476923       0.602637
        4       2.169231       0.499227
        5       2.138462       0.507147
        6       2.130769       0.463861
        7       2.838462       0.733025
        8       2.869231       0.710979
        9       2.815385       0.705546
       10       2.630769       0.646045
       11       2.284615       0.549004
       12       2.307692       0.556193
       13       2.892308       0.726853
       14       2.869231       0.736508
       15       2.761538       0.668757
       16       2.561538       0.655957
       17       2.723077       0.663694
       18       2.461538       0.611686
       19       2.438462       0.576216
       20       2.407692       0.599671
       21       2.407692       0.560918
       22       2.538462       0.632329
       23       2.169231       0.482052
       24       2.630769       0.677112
       25       2.330769       0.531628
       26       2.384615       0.605567
       27       2.353846       0.537461
       28       2.130769       0.503253
       29       2.446154       0.587886
       30       2.415385       0.579849
       31       2.130769       0.499376

 Density error is 2.626089737890
                          Error Threshold = 0.000195732141

       Energy                       Rydberg                            eV
   E_KohnSham            -2767.078517643743           -37648.034653348441
     E_Harris            -2767.096210095114           -37648.275371498676
      E_Fermi               +0.867773406284              +11.806662898325

 PW ALGORITHM --------------- ION=   1  ELEC=  17--------------------------------
  K-point    CG iter num      Time(Sec)
        1       2.423077       0.581453
        2       2.261538       0.527399
        3       2.161538       0.509359
        4       2.046154       0.435721
        5       2.046154       0.474601
        6       2.046154       0.466633
        7       2.184615       0.515547
        8       2.107692       0.495714
        9       2.115385       0.467933
       10       2.061538       0.493726
       11       2.015385       0.458722
       12       2.015385       0.469152
       13       2.023077       0.475189
       14       2.100000       0.464540
       15       2.130769       0.509384
       16       2.200000       0.515950
       17       2.123077       0.501875
       18       2.069231       0.483152
       19       2.092308       0.459771
       20       2.046154       0.493380
       21       2.061538       0.469741
       22       2.115385       0.512774
       23       2.046154       0.475325
       24       2.015385       0.436473
       25       2.100000       0.509824
       26       2.046154       0.462899
       27       2.053846       0.478128
       28       2.015385       0.466876
       29       2.030769       0.438700
       30       2.069231       0.482188
       31       2.015385       0.460926

 Density error is 0.344075323622
                          Error Threshold = 0.000195732141

       Energy                       Rydberg                            eV
   E_KohnSham            -2767.082364470865           -37648.086992116521
     E_Harris            -2767.088452915908           -37648.169829661063
      E_Fermi               +0.869253664166              +11.826802840041

 PW ALGORITHM --------------- ION=   1  ELEC=  18--------------------------------
  K-point    CG iter num      Time(Sec)
        1       2.300000       0.548180
        2       2.000000       0.441084
        3       2.023077       0.484080
        4       2.015385       0.428124
        5       2.015385       0.462993
        6       2.015385       0.463033
        7       2.053846       0.446918
        8       2.053846       0.490378
        9       2.000000       0.450704
       10       2.023077       0.466911
       11       2.023077       0.473200
       12       2.000000       0.435139
       13       2.023077       0.470704
       14       2.030769       0.473123
       15       2.161538       0.506568
       16       2.000000       0.473582
       17       2.076923       0.454720
       18       2.038462       0.471329
       19       2.053846       0.478234
       20       2.030769       0.457569
       21       2.038462       0.490289
       22       2.015385       0.434630
       23       2.000000       0.460903
       24       2.023077       0.468050
       25       2.015385       0.436614
       26       2.046154       0.485565
       27       2.030769       0.460957
       28       2.000000       0.458850
       29       2.046154       0.479452
       30       2.046154       0.441633
       31       2.000000       0.462674

 Density error is 0.034097827614
                          Error Threshold = 0.000156397874

       Energy                       Rydberg                            eV
   E_KohnSham            -2767.085480796005           -37648.129391895251
     E_Harris            -2767.086045072025           -37648.137069264361
      E_Fermi               +0.869394013881              +11.828712395867

 PW ALGORITHM --------------- ION=   1  ELEC=  19--------------------------------
  K-point    CG iter num      Time(Sec)
        1       3.730769       0.976664
        2       2.753846       0.662421
        3       2.561538       0.637664
        4       2.115385       0.469482
        5       2.115385       0.510254
        6       2.076923       0.449426
        7       2.507692       0.613554
        8       2.469231       0.587183
        9       2.500000       0.614744
       10       2.438462       0.580153
       11       2.223077       0.528366
       12       2.238462       0.536269
       13       2.484615       0.603395
       14       2.469231       0.599718
       15       2.546154       0.621232
       16       2.461538       0.600518
       17       2.430769       0.585930
       18       2.292308       0.546148
       19       2.230769       0.523125
       20       2.238462       0.542152
       21       2.353846       0.542987
       22       2.400000       0.586784
       23       2.107692       0.462233
       24       2.346154       0.579655
       25       2.307692       0.540554
       26       2.215385       0.528170
       27       2.169231       0.514410
       28       2.130769       0.497639
       29       2.184615       0.516935
       30       2.546154       0.603531
       31       2.092308       0.507310

 Density error is 0.007962683563
                          Error Threshold = 0.000015499013

       Energy                       Rydberg                            eV
   E_KohnSham            -2767.085761952136           -37648.133217220653
     E_Harris            -2767.085894181007           -37648.135016286731
      E_Fermi               +0.869343941130              +11.828031121148

 PW ALGORITHM --------------- ION=   1  ELEC=  20--------------------------------
  K-point    CG iter num      Time(Sec)
        1       3.169231       0.818618
        2       2.407692       0.560261
        3       2.300000       0.559979
        4       2.115385       0.455700
        5       2.076923       0.490304
        6       2.100000       0.475812
        7       2.476923       0.602504
        8       2.784615       0.692840
        9       2.530769       0.624496
       10       2.146154       0.492729
       11       2.076923       0.486716
       12       2.138462       0.505464
       13       2.215385       0.501496
       14       2.400000       0.601071
       15       2.300000       0.517929
       16       2.607692       0.671214
       17       2.330769       0.528452
       18       2.392308       0.599149
       19       2.284615       0.522840
       20       2.261538       0.538592
       21       2.292308       0.543305
       22       2.246154       0.520748
       23       2.092308       0.489737
       24       2.246154       0.521416
       25       2.269231       0.562031
       26       2.215385       0.495528
       27       2.146154       0.519732
       28       2.069231       0.472857
       29       2.192308       0.521161
       30       2.323077       0.551251
       31       2.076923       0.467797

 Density error is 0.000960175857
                          Error Threshold = 0.000003619402

       Energy                       Rydberg                            eV
   E_KohnSham            -2767.085807758378           -37648.133840446557
     E_Harris            -2767.085882201125           -37648.134853292082
      E_Fermi               +0.869315685225              +11.827646679835

 PW ALGORITHM --------------- ION=   1  ELEC=  21--------------------------------
  K-point    CG iter num      Time(Sec)
        1       3.769231       0.966511
        2       2.707692       0.635551
        3       2.553846       0.650296
        4       2.223077       0.486504
        5       2.330769       0.557278
        6       2.200000       0.508724
        7       2.669231       0.653158
        8       2.700000       0.661261
        9       2.646154       0.658939
       10       2.538462       0.606027
       11       2.353846       0.574907
       12       2.346154       0.554712
       13       2.576923       0.636785
       14       2.776923       0.673690
       15       2.692308       0.695306
       16       2.676923       0.636009
       17       2.707692       0.682563
       18       2.738462       0.667035
       19       2.438462       0.583535
       20       2.492308       0.599879
       21       2.438462       0.594715
       22       2.976923       0.722499
       23       2.238462       0.532216
       24       2.838462       0.705887
       25       2.446154       0.590942
       26       2.438462       0.587810
       27       2.369231       0.568328
       28       2.269231       0.539774
       29       2.346154       0.561306
       30       2.438462       0.576757
       31       2.215385       0.533547

 Density error is 0.007069634698
                          Error Threshold = 0.000000436444

       Energy                       Rydberg                            eV
   E_KohnSham            -2767.085827365648           -37648.134107217142
     E_Harris            -2767.085899057342           -37648.135082632689
      E_Fermi               +0.869324892027              +11.827771944798

 PW ALGORITHM --------------- ION=   1  ELEC=  22--------------------------------
  K-point    CG iter num      Time(Sec)
        1       3.223077       0.800503
        2       2.353846       0.555822
        3       2.269231       0.543670
        4       2.123077       0.488921
        5       2.130769       0.497372
        6       2.123077       0.461417
        7       2.346154       0.584550
        8       2.430769       0.570462
        9       2.338462       0.568012
       10       2.253846       0.526207
       11       2.192308       0.519458
       12       2.200000       0.524437
       13       2.330769       0.556530
       14       2.353846       0.573521
       15       2.446154       0.585224
       16       2.323077       0.564544
       17       2.369231       0.544176
       18       2.253846       0.555460
       19       2.238462       0.498235
       20       2.230769       0.533457
       21       2.238462       0.526904
       22       2.461538       0.585878
       23       2.123077       0.498982
       24       2.276923       0.538521
       25       2.246154       0.539544
       26       2.207692       0.491550
       27       2.184615       0.537565
       28       2.123077       0.471471
       29       2.200000       0.520785
       30       2.269231       0.537886
       31       2.115385       0.494085

 Density error is 0.003833025222
                          Error Threshold = 0.000000436444

       Energy                       Rydberg                            eV
   E_KohnSham            -2767.085792406336           -37648.133631571305
     E_Harris            -2767.085887589644           -37648.134926606639
      E_Fermi               +0.869348759568              +11.828096679362

 PW ALGORITHM --------------- ION=   1  ELEC=  23--------------------------------
  K-point    CG iter num      Time(Sec)
        1       3.561538       0.921356
        2       2.576923       0.596703
        3       2.361538       0.591316
        4       2.192308       0.493881
        5       2.176923       0.515223
        6       2.169231       0.509699
        7       2.576923       0.632120
        8       2.538462       0.619996
        9       2.538462       0.617197
       10       2.400000       0.581210
       11       2.307692       0.559251
       12       2.315385       0.558619
       13       2.461538       0.598504
       14       2.569231       0.631035
       15       2.553846       0.628335
       16       2.392308       0.582819
       17       2.538462       0.617010
       18       2.423077       0.584475
       19       2.353846       0.563372
       20       2.353846       0.567284
       21       2.353846       0.558100
       22       2.453846       0.599759
       23       2.184615       0.484047
       24       2.538462       0.648241
       25       2.400000       0.547444
       26       2.330769       0.589711
       27       2.300000       0.518418
       28       2.192308       0.525949
       29       2.315385       0.546902
       30       2.361538       0.563257
       31       2.161538       0.511976

 Density error is 0.030238553253
                          Error Threshold = 0.000000436444

       Energy                       Rydberg                            eV
   E_KohnSham            -2767.085329261085           -37648.127330156887
     E_Harris            -2767.085995550291           -37648.136395486610
      E_Fermi               +0.869263322660              +11.826934250586

 PW ALGORITHM --------------- ION=   1  ELEC=  24--------------------------------
  K-point    CG iter num      Time(Sec)
        1       4.376923       1.162364
        2       2.746154       0.664777
        3       2.846154       0.715571
        4       2.215385       0.512839
        5       2.300000       0.547581
        6       2.184615       0.512606
        7       2.692308       0.666226
        8       2.900000       0.725267
        9       2.884615       0.743270
       10       2.623077       0.626049
       11       2.369231       0.604125
       12       2.392308       0.553355
       13       2.676923       0.698972
       14       2.730769       0.654446
       15       2.776923       0.713461
       16       2.415385       0.579282
       17       2.953846       0.753132
       18       2.723077       0.671489
       19       2.684615       0.663153
       20       2.515385       0.624111
       21       2.569231       0.622488
       22       2.584615       0.647071
       23       2.230769       0.507781
       24       2.884615       0.754052
       25       2.561538       0.595092
       26       2.430769       0.621623
       27       2.353846       0.534739
       28       2.184615       0.533896
       29       2.423077       0.573361
       30       2.546154       0.632284
       31       2.184615       0.505135

 Density error is 0.181691081919
                          Error Threshold = 0.000000436444

       Energy                       Rydberg                            eV
   E_KohnSham            -2767.084958545800           -37648.122286316677
     E_Harris            -2767.086511276867           -37648.143412306650
      E_Fermi               +0.869221204457              +11.826361203039

 PW ALGORITHM --------------- ION=   1  ELEC=  25--------------------------------
  K-point    CG iter num      Time(Sec)
        1       4.176923       1.073406
        2       2.700000       0.648830
        3       2.823077       0.726855
        4       2.230769       0.496246
        5       2.307692       0.549511
        6       2.200000       0.517401
        7       2.853846       0.714855
        8       2.876923       0.711757
        9       2.923077       0.757672
       10       2.607692       0.626867
       11       2.346154       0.585975
       12       2.361538       0.539352
       13       2.746154       0.710720
       14       2.807692       0.697119
       15       2.761538       0.684834
       16       2.476923       0.607644
       17       2.846154       0.710145
       18       2.792308       0.718780
       19       2.507692       0.582808
       20       2.469231       0.629443
       21       2.546154       0.599888
       22       2.592308       0.654723
       23       2.238462       0.499956
       24       2.938462       0.768135
       25       2.853846       0.710282
       26       2.438462       0.596269
       27       2.369231       0.565313
       28       2.200000       0.527566
       29       2.384615       0.540050
       30       2.638462       0.675241
       31       2.192308       0.485461

 Density error is 0.019302501745
                          Error Threshold = 0.000000436444

       Energy                       Rydberg                            eV
   E_KohnSham            -2767.085598639627           -37648.130995239975
     E_Harris            -2767.085934007000           -37648.135558147165
      E_Fermi               +0.869322269490              +11.827736263362

 PW ALGORITHM --------------- ION=   1  ELEC=  26--------------------------------
  K-point    CG iter num      Time(Sec)
        1       3.407692       0.856694
        2       2.623077       0.626742
        3       2.684615       0.658880
        4       2.146154       0.495820
        5       2.153846       0.499707
        6       2.123077       0.504800
        7       2.538462       0.599057
        8       2.576923       0.653858
        9       2.807692       0.696637
       10       2.469231       0.601111
       11       2.292308       0.546129
       12       2.292308       0.559503
       13       2.592308       0.633398
       14       2.700000       0.671575
       15       2.523077       0.619040
       16       2.338462       0.567624
       17       2.684615       0.666169
       18       2.769231       0.687494
       19       2.453846       0.594373
       20       2.284615       0.549077
       21       2.353846       0.574481
       22       2.407692       0.572232
       23       2.138462       0.500426
       24       2.707692       0.671057
       25       2.615385       0.649463
       26       2.261538       0.543741
       27       2.269231       0.538134
       28       2.130769       0.512807
       29       2.284615       0.511706
       30       2.400000       0.607035
       31       2.115385       0.464334

 Density error is 0.053617235743
                          Error Threshold = 0.000000436444

       Energy                       Rydberg                            eV
   E_KohnSham            -2767.085617202726           -37648.131247803896
     E_Harris            -2767.086041763262           -37648.137024246324
      E_Fermi               +0.869286491700              +11.827249481547

 PW ALGORITHM --------------- ION=   1  ELEC=  27--------------------------------
  K-point    CG iter num      Time(Sec)
        1       3.538462       0.893548
        2       2.500000       0.593262
        3       2.500000       0.607114
        4       2.176923       0.513320
        5       2.153846       0.471677
        6       2.161538       0.525318
        7       2.523077       0.602126
        8       2.576923       0.664992
        9       2.761538       0.657005
       10       2.407692       0.611195
       11       2.246154       0.504370
       12       2.223077       0.549147
       13       2.469231       0.590722
       14       2.653846       0.683316
       15       2.515385       0.585832
       16       2.330769       0.587231
       17       2.607692       0.621700
       18       2.607692       0.674112
       19       2.315385       0.522256
       20       2.246154       0.559517
       21       2.323077       0.546497
       22       2.392308       0.566939
       23       2.153846       0.503879
       24       2.576923       0.635661
       25       2.315385       0.559906
       26       2.292308       0.547715
       27       2.261538       0.540779
       28       2.153846       0.510585
       29       2.238462       0.566844
       30       2.353846       0.537189
       31       2.153846       0.509043

 Density error is 0.003247480490
                          Error Threshold = 0.000000436444

       Energy                       Rydberg                            eV
   E_KohnSham            -2767.085788998366           -37648.133585203497
     E_Harris            -2767.085878711836           -37648.134805817870
      E_Fermi               +0.869308607135              +11.827550377480

 PW ALGORITHM --------------- ION=   1  ELEC=  28--------------------------------
  K-point    CG iter num      Time(Sec)
        1       3.630769       0.951875
        2       2.530769       0.599152
        3       2.438462       0.589890
        4       2.176923       0.476828
        5       2.161538       0.526309
        6       2.161538       0.478891
        7       2.530769       0.627725
        8       2.623077       0.637976
        9       2.692308       0.696933
       10       2.492308       0.574183
       11       2.300000       0.577300
       12       2.307692       0.527110
       13       2.476923       0.622124
       14       2.615385       0.627645
       15       2.538462       0.646345
       16       2.384615       0.553406
       17       2.761538       0.718017
       18       2.592308       0.608950
       19       2.476923       0.625646
       20       2.307692       0.520525
       21       2.361538       0.594364
       22       2.407692       0.537609
       23       2.169231       0.522247
       24       2.623077       0.636759
       25       2.676923       0.693876
       26       2.315385       0.524457
       27       2.292308       0.561447
       28       2.161538       0.499002
       29       2.315385       0.556577
       30       2.323077       0.554553
       31       2.161538       0.508083

 Density error is 0.015758729117
                          Error Threshold = 0.000000436444

       Energy                       Rydberg                            eV
   E_KohnSham            -2767.085751144420           -37648.133070174132
     E_Harris            -2767.085947917767           -37648.135747412860
      E_Fermi               +0.869308414213              +11.827547752635

[...]
      89       5.255716       0.040000
      90       5.847671       0.040000
      91       5.850015       0.040000
      92       6.569511       0.040000
      93       6.595588       0.040000
      94       7.434336       0.040000
      95       7.438891       0.040000
      96       8.361812       0.040000
      97       8.389223       0.040000
      98       8.909808       0.040000
      99       8.983814       0.040000
     100       8.990896       0.040000
     101       9.159483       0.040000
     102       9.209210       0.040000
     103       9.377241       0.040000
     104       9.467442       0.040000
     105       9.516738       0.040000
     106       9.556970       0.040000
     107      10.040907       0.040000
     108      10.074643       0.040000
     109      10.557790       0.040000
     110      10.690082       0.040000
     111      10.945782       0.040000
     112      11.411539       0.040000
     113      11.499161       0.040000
     114      11.582459       0.039989
     115      12.256387       0.000000
     116      12.278615       0.000000
     117      12.473671       0.000000
     118      12.489837       0.000000
     119      13.231167       0.000000
     120      13.271012       0.000000
     121      13.853593       0.000000
     122      13.891061       0.000000
     123      14.316517       0.000000
     124      14.343136       0.000000
     125      15.330734       0.000000
     126      15.410015       0.000000
     127      15.418823       0.000000
     128      15.714864       0.000000
     129      16.763695       0.000000
     130      16.801050       0.000000

 29/31 kpoint (Cartesian) = 0.848528 0.326599 0.000000 (524 pws)
       1     -91.683791       0.080000
       2     -91.681668       0.080000
       3     -91.678576       0.080000
       4     -91.675537       0.080000
       5     -91.668744       0.080000
       6     -91.666336       0.080000
       7     -91.663842       0.080000
       8     -91.661803       0.080000
       9     -91.653997       0.080000
      10     -91.653778       0.080000
      11     -91.651339       0.080000
      12     -91.651019       0.080000
      13     -91.644873       0.080000
      14     -91.644339       0.080000
      15     -91.640606       0.080000
      16     -91.638772       0.080000
      17     -91.634895       0.080000
      18     -91.632651       0.080000
      19     -91.606731       0.080000
      20     -91.594666       0.080000
      21     -53.294816       0.080000
      22     -53.294721       0.080000
      23     -53.292117       0.080000
      24     -53.292028       0.080000
      25     -53.290184       0.080000
      26     -53.289761       0.080000
      27     -53.288048       0.080000
      28     -53.287900       0.080000
      29     -53.284640       0.080000
      30     -53.284210       0.080000
      31     -53.281127       0.080000
      32     -53.280755       0.080000
      33     -53.279245       0.080000
      34     -53.279140       0.080000
      35     -53.277747       0.080000
      36     -53.277627       0.080000
      37     -53.276910       0.080000
      38     -53.276875       0.080000
      39     -53.275300       0.080000
      40     -53.274986       0.080000
      41     -53.272258       0.080000
      42     -53.272164       0.080000
      43     -53.269949       0.080000
      44     -53.269895       0.080000
      45     -53.269207       0.080000
      46     -53.268977       0.080000
      47     -53.264386       0.080000
      48     -53.264177       0.080000
      49     -53.262880       0.080000
      50     -53.262461       0.080000
      51     -53.262112       0.080000
      52     -53.262015       0.080000
      53     -53.259916       0.080000
      54     -53.259579       0.080000
      55     -53.257593       0.080000
      56     -53.257560       0.080000
      57     -53.256109       0.080000
      58     -53.255895       0.080000
      59     -53.254995       0.080000
      60     -53.254918       0.080000
      61     -53.254734       0.080000
      62     -53.254703       0.080000
      63     -53.250872       0.080000
      64     -53.250770       0.080000
      65     -53.249470       0.080000
      66     -53.249405       0.080000
      67     -53.248676       0.080000
      68     -53.248318       0.080000
      69     -53.244750       0.080000
      70     -53.244509       0.080000
      71     -53.244365       0.080000
      72     -53.243892       0.080000
      73     -53.241789       0.080000
      74     -53.241254       0.080000
      75     -53.228257       0.080000
      76     -53.216969       0.080000
      77     -53.215480       0.080000
      78     -53.214709       0.080000
      79     -53.204356       0.080000
      80     -53.202998       0.080000
      81       5.364084       0.080000
      82       5.427331       0.080000
      83       5.433610       0.080000
      84       5.612230       0.080000
      85       5.655860       0.080000
      86       5.968928       0.080000
      87       5.972077       0.080000
      88       6.423533       0.080000
      89       6.448396       0.080000
      90       7.024523       0.080000
      91       7.024799       0.080000
      92       7.639052       0.080000
      93       7.684540       0.080000
      94       7.768263       0.080000
      95       7.859185       0.080000
      96       7.895338       0.080000
      97       7.983041       0.080000
      98       8.039145       0.080000
      99       8.310657       0.080000
     100       8.314634       0.080000
     101       8.602482       0.080000
     102       8.608236       0.080000
     103       8.831408       0.080000
     104       8.857225       0.080000
     105       9.211550       0.080000
     106       9.219034       0.080000
     107       9.707631       0.080000
     108       9.708177       0.080000
     109      10.302702       0.080000
     110      10.317425       0.080000
     111      10.963596       0.080000
     112      10.968411       0.080000
     113      11.185012       0.080000
     114      11.210284       0.080000
     115      11.841428       0.033859
     116      12.058275       0.000048
     117      12.130013       0.000001
     118      12.403267       0.000000
     119      13.119022       0.000000
     120      13.137273       0.000000
     121      13.400301       0.000000
     122      13.444286       0.000000
     123      14.133508       0.000000
     124      14.257214       0.000000
     125      14.409389       0.000000
     126      14.507065       0.000000
     127      14.699802       0.000000
     128      14.776409       0.000000
     129      15.186093       0.000000
     130      15.216959       0.000000

 30/31 kpoint (Cartesian) = 0.565685 0.653197 0.000000 (538 pws)
       1     -91.672928       0.040000
       2     -91.672625       0.040000
       3     -91.669510       0.040000
       4     -91.669324       0.040000
       5     -91.665102       0.040000
       6     -91.662957       0.040000
       7     -91.661718       0.040000
       8     -91.660387       0.040000
       9     -91.652448       0.040000
      10     -91.651293       0.040000
      11     -91.648956       0.040000
      12     -91.642983       0.040000
      13     -91.642100       0.040000
      14     -91.639528       0.040000
      15     -91.637261       0.040000
      16     -91.634722       0.040000
      17     -91.632872       0.040000
      18     -91.631576       0.040000
      19     -91.604512       0.040000
      20     -91.592001       0.040000
      21     -53.293157       0.040000
      22     -53.293002       0.040000
      23     -53.290627       0.040000
      24     -53.290370       0.040000
      25     -53.288766       0.040000
      26     -53.288487       0.040000
      27     -53.286614       0.040000
      28     -53.286502       0.040000
      29     -53.283758       0.040000
      30     -53.283521       0.040000
      31     -53.281717       0.040000
      32     -53.281569       0.040000
      33     -53.280652       0.040000
      34     -53.280182       0.040000
      35     -53.279473       0.040000
      36     -53.279216       0.040000
      37     -53.276233       0.040000
      38     -53.276170       0.040000
      39     -53.274762       0.040000
      40     -53.274688       0.040000
      41     -53.273070       0.040000
      42     -53.272910       0.040000
      43     -53.270931       0.040000
      44     -53.270859       0.040000
      45     -53.268269       0.040000
      46     -53.267715       0.040000
      47     -53.266703       0.040000
      48     -53.266610       0.040000
      49     -53.261556       0.040000
      50     -53.261492       0.040000
      51     -53.261232       0.040000
      52     -53.260705       0.040000
      53     -53.258565       0.040000
      54     -53.258424       0.040000
      55     -53.258109       0.040000
      56     -53.258065       0.040000
      57     -53.257862       0.040000
      58     -53.257676       0.040000
      59     -53.256786       0.040000
      60     -53.256425       0.040000
      61     -53.254626       0.040000
      62     -53.253794       0.040000
      63     -53.251760       0.040000
      64     -53.251647       0.040000
      65     -53.250229       0.040000
      66     -53.249571       0.040000
      67     -53.248952       0.040000
      68     -53.248570       0.040000
      69     -53.246458       0.040000
      70     -53.246190       0.040000
      71     -53.246066       0.040000
      72     -53.246047       0.040000
      73     -53.243140       0.040000
      74     -53.242732       0.040000
      75     -53.226646       0.040000
      76     -53.217026       0.040000
      77     -53.215543       0.040000
      78     -53.215296       0.040000
      79     -53.205288       0.040000
      80     -53.204423       0.040000
      81       7.029819       0.040000
      82       7.041110       0.040000
      83       7.092832       0.040000
      84       7.094696       0.040000
      85       7.106935       0.040000
      86       7.119301       0.040000
      87       7.265699       0.040000
      88       7.283481       0.040000
      89       7.312524       0.040000
      90       7.329490       0.040000
      91       7.556608       0.040000
      92       7.569205       0.040000
      93       7.678655       0.040000
      94       7.683945       0.040000
      95       8.074457       0.040000
      96       8.091104       0.040000
      97       8.101300       0.040000
      98       8.129353       0.040000
      99       8.575800       0.040000
     100       8.577831       0.040000
     101       8.778737       0.040000
     102       8.784878       0.040000
     103       9.306054       0.040000
     104       9.331684       0.040000
     105       9.380328       0.040000
     106       9.391076       0.040000
     107      10.068762       0.040000
     108      10.083830       0.040000
     109      10.566886       0.040000
     110      10.604018       0.040000
     111      11.243067       0.040000
     112      11.254043       0.040000
     113      11.279499       0.040000
     114      11.369779       0.040000
     115      11.715090       0.037722
     116      11.845181       0.016108
     117      11.855258       0.013962
     118      11.900803       0.006082
     119      11.938454       0.002392
     120      12.067033       0.000015
     121      12.098803       0.000003
     122      12.312786       0.000000
     123      12.408294       0.000000
     124      12.673241       0.000000
     125      12.841872       0.000000
     126      13.134602       0.000000
     127      13.302169       0.000000
     128      13.550256       0.000000
     129      13.645764       0.000000
     130      13.736068       0.000000

 31/31 kpoint (Cartesian) = 0.707107 0.408248 0.000000 (522 pws)
       1     -91.684218       0.020000
       2     -91.682629       0.020000
       3     -91.679190       0.020000
       4     -91.673972       0.020000
       5     -91.670954       0.020000
       6     -91.670792       0.020000
       7     -91.668303       0.020000
       8     -91.663222       0.020000
       9     -91.661113       0.020000
      10     -91.656566       0.020000
      11     -91.653335       0.020000
      12     -91.652945       0.020000
      13     -91.649176       0.020000
      14     -91.646938       0.020000
      15     -91.646502       0.020000
      16     -91.642469       0.020000
      17     -91.633619       0.020000
      18     -91.630660       0.020000
      19     -91.611706       0.020000
      20     -91.596767       0.020000
      21     -53.296167       0.020000
      22     -53.296122       0.020000
      23     -53.293765       0.020000
      24     -53.293349       0.020000
      25     -53.291600       0.020000
      26     -53.291380       0.020000
      27     -53.289154       0.020000
      28     -53.289094       0.020000
      29     -53.285136       0.020000
      30     -53.285059       0.020000
      31     -53.281160       0.020000
      32     -53.280778       0.020000
      33     -53.278429       0.020000
      34     -53.278269       0.020000
      35     -53.278165       0.020000
      36     -53.277523       0.020000
      37     -53.276224       0.020000
      38     -53.276154       0.020000
      39     -53.275873       0.020000
      40     -53.275762       0.020000
      41     -53.271689       0.020000
      42     -53.271485       0.020000
      43     -53.270748       0.020000
      44     -53.270569       0.020000
      45     -53.269782       0.020000
      46     -53.269711       0.020000
      47     -53.264027       0.020000
      48     -53.264024       0.020000
      49     -53.263901       0.020000
      50     -53.263728       0.020000
      51     -53.263476       0.020000
      52     -53.263265       0.020000
      53     -53.261235       0.020000
      54     -53.260851       0.020000
      55     -53.257937       0.020000
      56     -53.257104       0.020000
      57     -53.255455       0.020000
      58     -53.255199       0.020000
      59     -53.255179       0.020000
      60     -53.254864       0.020000
      61     -53.254390       0.020000
      62     -53.253815       0.020000
      63     -53.250564       0.020000
      64     -53.250457       0.020000
      65     -53.249958       0.020000
      66     -53.249311       0.020000
      67     -53.248134       0.020000
      68     -53.247845       0.020000
      69     -53.245055       0.020000
      70     -53.244548       0.020000
      71     -53.244038       0.020000
      72     -53.242879       0.020000
      73     -53.242061       0.020000
      74     -53.240434       0.020000
      75     -53.229443       0.020000
      76     -53.218231       0.020000
      77     -53.215571       0.020000
      78     -53.214216       0.020000
      79     -53.204362       0.020000
      80     -53.202464       0.020000
      81       6.310314       0.020000
      82       6.322810       0.020000
      83       6.374602       0.020000
      84       6.376923       0.020000
      85       6.390800       0.020000
      86       6.404721       0.020000
      87       6.553013       0.020000
      88       6.570057       0.020000
      89       6.598976       0.020000
      90       6.617310       0.020000
      91       6.853676       0.020000
      92       6.865815       0.020000
      93       6.963656       0.020000
      94       6.968797       0.020000
      95       7.365780       0.020000
      96       7.384315       0.020000
      97       7.392071       0.020000
      98       7.419362       0.020000
      99       7.878797       0.020000
     100       7.879839       0.020000
     101       8.076617       0.020000
     102       8.082305       0.020000
     103       8.615618       0.020000
     104       8.643355       0.020000
     105       8.695747       0.020000
     106       8.706591       0.020000
     107       9.407924       0.020000
     108       9.416249       0.020000
     109       9.945178       0.020000
     110       9.961668       0.020000
     111      10.710439       0.020000
     112      10.718401       0.020000
     113      10.832674       0.020000
     114      10.893114       0.020000
     115      11.738454       0.017897
     116      11.754167       0.016980
     117      11.854919       0.007016
     118      11.920730       0.001910
     119      12.720237       0.000000
     120      12.854191       0.000000
     121      13.286019       0.000000
     122      13.384023       0.000000
     123      14.342557       0.000000
     124      14.382735       0.000000
     125      14.451230       0.000000
     126      14.489692       0.000000
     127      15.755848       0.000000
     128      15.784998       0.000000
     129      15.807684       0.000000
     130      15.880710       0.000000



 --------------------------------------------
 !FINAL_ETOT_IS -37648.1344159909494920 eV
 --------------------------------------------






  |CLASS_NAME---------|NAME---------------|TIME(Sec)-----|CALLS----|AVG------|PER%-------
                                      total     1075.16326        17     63.24    100.00%
                 Run_pw     plane_wave_line     1075.15704         1   1075.16    100.00%
                Cell_PW        opt_cells_pw     1075.06493         1   1075.06     99.99%
                    FFT               FFT3D      264.81959   1541025      0.00     24.63%
              Potential            v_of_rho        0.32116        42      0.01      0.03%
                H_XC_pw                v_xc        0.29255        42      0.01      0.03%
               wavefunc             wfcinit        8.96810         1      8.97      0.83%
            pp_cell_vnl              getvnl        1.24509      1333      0.00      0.12%
                 WF_igk              get_sk        0.30074     27280      0.00      0.03%
              Hamilt_PW      diagH_subspace       88.85590      1271      0.07      8.26%
              Hamilt_PW               h_psi      720.30501    533484      0.00     66.99%
              Hamilt_PW                vloc      308.04462    533484      0.00     28.65%
              Hamilt_PW                 vnl      408.28965    533484      0.00     37.97%
              Hamilt_PW     add_nonlocal_pp      130.58334    533484      0.00     12.15%
              Hamilt_PW                meta        0.13686    533484      0.00      0.01%
                 Hamilt        diagH_LAPACK        8.05739      1271      0.01      0.75%
                   Ions         opt_ions_pw     1065.98512         1   1065.99     99.15%
              Electrons     self_consistent     1065.98510         1   1065.99     99.15%
               Symmetry        rho_symmetry        0.33452        43      0.01      0.03%
              Electrons             c_bands      989.40993        42     23.56     92.02%
                 Hamilt            diagH_pw      987.97036      1302      0.76     91.89%
               Diago_CG                diag      901.22799      1302      0.69     83.82%
                 Charge            sum_band       72.14633        42      1.72      6.71%
                 Charge             rho_mpi        0.31049        42      0.01      0.03%
                 Charge             mix_rho        0.12703        42      0.00      0.01%
 ----------------------------------------------------------------------------------------

 CLASS_NAME---------|NAME---------------|MEMORY(MB)--------
                                         42.9659
             wavefunc                 evc        38.9865
 ----------------------------------------------------------

 Start  Time  : Tue Mar 29 17:25:36 2022
 Finish Time  : Tue Mar 29 17:43:34 2022
 Total  Time  : 0 h 17 mins 58 secs 
