 *********************************************************
 *                                                       *
 *                  WELCOME TO ABACUS v3.0               *
 *                                                       *
 *            'Atomic-orbital Based Ab-initio            *
 *                  Computation at UStc'                 *
 *                                                       *
 *          Website: http://abacus.ustc.edu.cn/          *
 *                                                       *
 *********************************************************
 Tue May  2 12:46:02 2023
 MAKE THE DIR         : OUT.blpstest/
Notice: symbol 'al_locpsp' is not an element symbol!!!! set the covalent radius to be 0.
 UNIFORM GRID DIM     : 25 * 25 * 25
 UNIFORM GRID DIM(BIG): 25 * 25 * 25
func,idXC_GGA_X_PBE 101
func,idXC_GGA_C_PBE 130
 DONE(0.110917   SEC) : SETUP UNITCELL
 DONE(0.169628   SEC) : SYMMETRY
 DONE(0.495054   SEC) : INIT K-POINTS
 ---------------------------------------------------------
 Self-consistent calculations for electrons
 ---------------------------------------------------------
 SPIN    KPOINTS         PROCESSORS  
 1       286             1           
 ---------------------------------------------------------
 Use plane wave basis
 ---------------------------------------------------------
 ELEMENT NATOM       XC          
 Al      1           
 ---------------------------------------------------------
 Initial plane wave basis and FFT box
 ---------------------------------------------------------
 DONE(0.496154   SEC) : INIT BASIS
 DONE(0.496231   SEC) : INIT PHI
 DONE(0.520846   SEC) : LOCAL POTENTIAL
 DONE(0.520919   SEC) : NON-LOCAL POTENTIAL
 START CHARGE      : atomic
 DONE(0.574734   SEC) : INIT POTENTIAL
 DONE(0.574807   SEC) : INIT OPTIMIZATION
Default type: double
 DONE(0.575768   SEC) : INIT KEDF
======================== Running OFDFT ========================
Iter        Etot(Ha)          Theta      PotNorm     deltaE(Ha)
0     -1.977117389063e+00   2.000e-01   1.838e-01   -1.977e+00  
1     -1.983289369596e+00   3.297e-02   2.079e-01   -6.172e-03  
2     -1.987165031721e+00   3.297e-02   2.283e-01   -3.876e-03  
3     -2.031274513241e+00   9.677e-02   3.043e-01   -4.411e-02  
4     -2.057505843013e+00   6.529e-02   2.683e-01   -2.623e-02  
5     -2.083892107469e+00   4.358e-02   6.875e-02   -2.639e-02  
6     -2.084735331207e+00   5.584e-03   5.933e-03   -8.432e-04  
7     -2.084754059317e+00   1.470e-03   2.926e-03   -1.873e-05  
8     -2.084757076860e+00   6.967e-04   2.473e-04   -3.018e-06  
9     -2.084757106986e+00   5.358e-05   2.192e-05   -3.013e-08  
10    -2.084757107254e+00   6.358e-06   7.113e-06   -2.685e-10  

  |CLASS_NAME---------|NAME---------------|TIME(Sec)-----|CALLS----|AVG------|PER%-------
                       total               6.8879         21        0.33      1e+02     %
   Driver              driver_line         6.8703         1         6.9       1e+02     %
   PW_Basis            recip2real          1.1477         2777      0.00041   17        %
   PW_Basis            gathers_scatterp    0.12032        2777      4.3e-05   1.7       %
   Potential           update_from_charge  3.7484         214       0.018     54        %
   Potential           cal_v_eff           3.7466         214       0.018     54        %
   H_Hartree_pw        v_hartree           0.25005        214       0.0012    3.6       %
   PW_Basis            real2recip          1.2567         2777      0.00045   18        %
   PW_Basis            gatherp_scatters    0.11699        2777      4.2e-05   1.7       %
   PotXC               cal_v_eff           3.4728         214       0.016     50        %
   XC_Functional       v_xc                3.1608         107       0.03      46        %
   XC_Functional       v_xc_libxc          3.4556         214       0.016     50        %
   ESolver_OF          Run                 6.3117         1         6.3       92        %
   KEDF_LKT            LKT_potential       2.1835         213       0.01      32        %
   KEDF_vW             vw_potential        0.23376        213       0.0011    3.4       %
 ----------------------------------------------------------------------------------------

 START  Time  : Tue May  2 12:46:02 2023
 FINISH Time  : Tue May  2 12:46:09 2023
 TOTAL  Time  : 7
 SEE INFORMATION IN : OUT.blpstest/
