 *********************************************************
 *                                                       *
 *                  WELCOME TO ABACUS v3.0               *
 *                                                       *
 *            'Atomic-orbital Based Ab-initio            *
 *                  Computation at UStc'                 *
 *                                                       *
 *          Website: http://abacus.ustc.edu.cn/          *
 *                                                       *
 *********************************************************
 Wed Apr 26 00:06:32 2023
 MAKE THE DIR         : OUT.oftest/
Notice: symbol 'al_locpsp' is not an element symbol!!!! set the covalent radius to be 0.
 UNIFORM GRID DIM     : 27 * 27 * 45
 UNIFORM GRID DIM(BIG): 27 * 27 * 45
func,idXC_GGA_X_PBE 101
func,idXC_GGA_C_PBE 130
 DONE(0.147339   SEC) : SETUP UNITCELL
 DONE(0.201512   SEC) : SYMMETRY
 DONE(0.201796   SEC) : INIT K-POINTS
 ---------------------------------------------------------
 Self-consistent calculations for electrons
 ---------------------------------------------------------
 SPIN    KPOINTS         PROCESSORS  
 1       1               1           
 ---------------------------------------------------------
 Use plane wave basis
 ---------------------------------------------------------
 ELEMENT NATOM       XC          
 Al      2           
 ---------------------------------------------------------
 Initial plane wave basis and FFT box
 ---------------------------------------------------------
 DONE(0.207861   SEC) : INIT BASIS
 DONE(0.207888   SEC) : INIT PHI
 DONE(0.402348   SEC) : LOCAL POTENTIAL
 DONE(0.402389   SEC) : NON-LOCAL POTENTIAL
 START CHARGE      : atomic
 DONE(0.662954   SEC) : INIT POTENTIAL
 DONE(0.663094   SEC) : INIT OPTIMIZATION
Default type: double
nnode = 10
nlayer = 3
feg_net_F = 0.540933
 DONE(0.722197   SEC) : INIT KEDF
======================== Running OFDFT ========================
Iter        Etot(Ha)          Theta      PotNorm     deltaE(Ha)
0     -4.027943845418e+00   2.000e-01   2.212e-01   -4.028e+00  
1     -4.052192284908e+00   4.639e-02   2.907e-01   -2.425e-02  
2     -4.053790207100e+00   8.388e-03   3.037e-01   -1.598e-03  
3     -4.070651461007e+00   2.606e-02   3.304e-01   -1.686e-02  
4     -4.097065687493e+00   2.564e-02   4.079e-01   -2.641e-02  
5     -4.109858144233e+00   1.431e-02   4.312e-01   -1.279e-02  
6     -4.198321281812e+00   4.782e-02   5.361e-02   -8.846e-02  
7     -4.199268036033e+00   5.427e-03   4.051e-03   -9.468e-04  
8     -4.199274970651e+00   7.163e-04   8.756e-04   -6.935e-06  
9     -4.199275242297e+00   1.235e-04   1.650e-04   -2.716e-07  
10    -4.199275249379e+00   1.517e-05   7.015e-05   -7.082e-09  

  |CLASS_NAME---------|NAME---------------|TIME(Sec)-----|CALLS----|AVG------|PER%-------
                       total               298.7          21        14        1e+02     %
   Driver              driver_line         298.69         1         3e+02     1e+02     %
   PW_Basis            setuptransform      0.12437        1         0.12      0.042     %
   ppcell_vl           init_vloc           0.19431        1         0.19      0.065     %
   Charge              atomic_rho          0.20742        1         0.21      0.069     %
   PW_Basis            recip2real          7.3093         5728      0.0013    2.4       %
   PW_Basis            gathers_scatterp    0.51431        5728      9e-05     0.17      %
   Potential           update_from_charge  10.286         287       0.036     3.4       %
   Potential           cal_v_eff           10.283         287       0.036     3.4       %
   H_Hartree_pw        v_hartree           0.82781        287       0.0029    0.28      %
   PW_Basis            real2recip          6.9574         5728      0.0012    2.3       %
   PW_Basis            gatherp_scatters    0.3166         5728      5.5e-05   0.11      %
   PotXC               cal_v_eff           9.426          287       0.033     3.2       %
   XC_Functional       v_xc                148.4          144       1         50        %
   XC_Functional       v_xc_libxc          9.4116         287       0.033     3.2       %
   ESolver_OF          Run                 297.98         1         3e+02     1e+02     %
   KEDF_vW             vw_potential        0.81137        286       0.0028    0.27      %
 ----------------------------------------------------------------------------------------

 START  Time  : Wed Apr 26 00:06:32 2023
 FINISH Time  : Wed Apr 26 00:11:30 2023
 TOTAL  Time  : 3e+02
 SEE INFORMATION IN : OUT.oftest/
