 *********************************************************
 *                                                       *
 *                  WELCOME TO ABACUS v3.0               *
 *                                                       *
 *            'Atomic-orbital Based Ab-initio            *
 *                  Computation at UStc'                 *
 *                                                       *
 *          Website: http://abacus.ustc.edu.cn/          *
 *                                                       *
 *********************************************************
 Mon Jul 24 14:11:43 2023
 MAKE THE DIR         : OUT.blpstest/
Notice: symbol 'Ga_locpsp' is not an element symbol!!!! set the covalent radius to be 0.
Notice: symbol 'Sb_locpsp' is not an element symbol!!!! set the covalent radius to be 0.
 UNIFORM GRID DIM     : 45 * 45 * 45
 UNIFORM GRID DIM(BIG): 45 * 45 * 45
func,idXC_GGA_X_PBE 101
func,idXC_GGA_C_PBE 130
 DONE(0.604515   SEC) : SETUP UNITCELL
 DONE(0.67119    SEC) : SYMMETRY
 DONE(1.08895    SEC) : INIT K-POINTS
 ---------------------------------------------------------
 Self-consistent calculations for electrons
 ---------------------------------------------------------
 SPIN    KPOINTS         PROCESSORS  
 1       256             1           
 ---------------------------------------------------------
 Use plane wave basis
 ---------------------------------------------------------
 ELEMENT NATOM       XC          
 Ga      1           
 Sb      1           
 ---------------------------------------------------------
 Initial plane wave basis and FFT box
 ---------------------------------------------------------
 DONE(1.45745    SEC) : INIT PLANEWAVE
 MEMORY FOR PSI (MB)  : 117.246
 DONE(1.54327    SEC) : LOCAL POTENTIAL
 DONE(1.5435     SEC) : NON-LOCAL POTENTIAL
 DONE(1.54381    SEC) : INIT BASIS
 START CHARGE      : atomic
 DONE(2.04049    SEC) : INIT SCF
 ITER   ETOT(eV)       EDIFF(eV)      DRHO       TIME(s)    
 CG1    -2.048719e+02  0.000000e+00   1.418e+00  5.356e+02  
 CG2    -2.074764e+02  -2.604520e+00  9.931e-02  2.438e+02  
 CG3    -2.077951e+02  -3.186862e-01  3.122e-02  2.337e+02  
 CG4    -2.078823e+02  -8.722268e-02  1.565e-04  1.553e+02  
 CG5    -2.078847e+02  -2.450031e-03  5.843e-05  1.650e+02  
 CG6    -2.078849e+02  -1.830762e-04  2.498e-06  8.406e+01  
 CG7    -2.078849e+02  -1.011161e-05  1.732e-08  6.026e+01  
 CG8    -2.078849e+02  -1.442236e-07  2.729e-09  5.013e+01  
 CG9    -2.078849e+02  -7.671927e-09  5.245e-12  2.960e+01  

  |CLASS_NAME---------|NAME---------------|TIME(Sec)-----|CALLS----|AVG------|PER%-------
                       total               1559.5         17        92        1e+02     %
   Driver              driver_line         1559.5         1         1.6e+03   1e+02     %
   PW_Basis            setuptransform      0.56952        1         0.57      0.037     %
   PW_Basis_K          setuptransform      0.22459        1         0.22      0.014     %
   ESolver_KS_PW       Run                 1558           1         1.6e+03   1e+02     %
   PW_Basis            recip2real          0.55379        62        0.0089    0.036     %
   Potential           init_pot            0.35868        1         0.36      0.023     %
   Potential           update_from_charge  2.4389         10        0.24      0.16      %
   Potential           cal_v_eff           2.4113         10        0.24      0.15      %
   H_Hartree_pw        v_hartree           0.24747        10        0.025     0.016     %
   PW_Basis            real2recip          0.86518        98        0.0088    0.055     %
   PotXC               cal_v_eff           2.1482         10        0.21      0.14      %
   XC_Functional       v_xc                1024.3         5         2e+02     66        %
   XC_Functional       v_xc_libxc          2.1252         10        0.21      0.14      %
   Symmetry            rho_symmetry        0.19651        10        0.02      0.013     %
   HSolverPW           solve               1554.5         9         1.7e+02   1e+02     %
   WF_atomic           atomic_wfc          0.20799        256       0.00081   0.013     %
   WF_igk              get_sk              0.14057        512       0.00027   0.009     %
   DiagoIterAssist     diagH_subspace      286.49         2304      0.12      18        %
   OperatorPW          hPsi                1437           81957     0.018     92        %
   Operator            EkineticPW          4.3739         81957     5.3e-05   0.28      %
   Operator            VeffPW              1430.7         81957     0.017     92        %
   PW_Basis_K          recip2real          728.79         109605    0.0066    47        %
   PW_Basis_K          gathers_scatterp    86.557         109605    0.00079   5.6       %
   PW_Basis_K          real2recip          625.23         100389    0.0062    40        %
   PW_Basis_K          gatherp_scatters    23.33          100389    0.00023   1.5       %
   Operator            NonlocalPW          0.21408        81957     2.6e-06   0.014     %
   DiagoIterAssist     LAPACK_subspace     0.48818        2304      0.00021   0.031     %
   DiagoCG             diag_once           1199.6         2304      0.52      77        %
   ElecStatePW         psiToRho            64.761         9         7.2       4.2       %
   Charge              mix_rho             0.3674         8         0.046     0.024     %
 ----------------------------------------------------------------------------------------

 START  Time  : Mon Jul 24 14:11:43 2023
 FINISH Time  : Mon Jul 24 14:37:42 2023
 TOTAL  Time  : 1.6e+03
 SEE INFORMATION IN : OUT.blpstest/
