 *********************************************************
 *                                                       *
 *                  WELCOME TO ABACUS v3.0               *
 *                                                       *
 *            'Atomic-orbital Based Ab-initio            *
 *                  Computation at UStc'                 *
 *                                                       *
 *          Website: http://abacus.ustc.edu.cn/          *
 *                                                       *
 *********************************************************
 Mon Apr 17 14:43:03 2023
 MAKE THE DIR         : OUT.blpstest/
Notice: symbol 'al_locpsp' is not an element symbol!!!! set the covalent radius to be 0.
 UNIFORM GRID DIM     : 24 * 24 * 24
 UNIFORM GRID DIM(BIG): 24 * 24 * 24
func,idXC_GGA_X_PBE 101
func,idXC_GGA_C_PBE 130
 DONE(0.232859   SEC) : SETUP UNITCELL
 DONE(0.294691   SEC) : SYMMETRY
 DONE(0.747254   SEC) : INIT K-POINTS
 ---------------------------------------------------------
 Self-consistent calculations for electrons
 ---------------------------------------------------------
 SPIN    KPOINTS         PROCESSORS  
 1       286             1           
 ---------------------------------------------------------
 Use plane wave basis
 ---------------------------------------------------------
 ELEMENT NATOM       XC          
 Al      1           
 ---------------------------------------------------------
 Initial plane wave basis and FFT box
 ---------------------------------------------------------
 DONE(0.748117   SEC) : INIT BASIS
 DONE(0.748144   SEC) : INIT PHI
 DONE(0.774479   SEC) : LOCAL POTENTIAL
 DONE(0.774535   SEC) : NON-LOCAL POTENTIAL
 START CHARGE      : atomic
 DONE(0.821927   SEC) : INIT POTENTIAL
 DONE(0.821981   SEC) : INIT OPTIMIZATION
 DONE(0.822672   SEC) : INIT KEDF
======================== Running OFDFT ========================
Iter        Etot(Ha)          Theta      PotNorm     deltaE(Ha)
0     -1.971102417568e+00   2.000e-01   2.170e-01   -1.971e+00  
1     -2.006546467801e+00   8.827e-02   3.263e-01   -3.544e-02  
2     -2.049200664558e+00   7.541e-02   3.467e-01   -4.265e-02  
3     -2.084605937448e+00   4.709e-02   3.550e-02   -3.541e-02  
4     -2.085167361223e+00   1.007e-02   3.819e-03   -5.614e-04  
5     -2.085173798009e+00   1.133e-03   2.876e-04   -6.437e-06  
6     -2.085173818737e+00   4.916e-05   3.272e-05   -2.073e-08  
7     -2.085173819143e+00   9.058e-06   2.756e-06   -4.063e-10  

  |CLASS_NAME---------|NAME---------------|TIME(Sec)-----|CALLS----|AVG------|PER%-------
                       total               8.6053         21        0.41      1e+02     %
   Driver              driver_line         8.5668         1         8.6       1e+02     %
   PW_Basis            setuptransform      0.18635        1         0.19      2.2       %
   PW_Basis            recip2real          1.2004         1754      0.00068   14        %
   Potential           update_from_charge  4.4398         195       0.023     52        %
   Potential           cal_v_eff           4.4384         195       0.023     52        %
   H_Hartree_pw        v_hartree           0.34187        195       0.0018    4         %
   PW_Basis            real2recip          1.611          2142      0.00075   19        %
   PW_Basis            gatherp_scatters    0.13563        2142      6.3e-05   1.6       %
   PotXC               cal_v_eff           4.0787         195       0.021     47        %
   XC_Functional       v_xc                3.905          98        0.04      45        %
   XC_Functional       v_xc_libxc          4.0659         195       0.021     47        %
   ESolver_OF          Run                 7.7823         1         7.8       90        %
   KEDF_TF             tf_potential        0.61503        194       0.0032    7.1       %
   KEDF_WT             wt_potential        2.1978         194       0.011     26        %
   KEDF_vW             vw_potential        0.35546        194       0.0018    4.1       %
 ----------------------------------------------------------------------------------------

 START  Time  : Mon Apr 17 14:43:03 2023
 FINISH Time  : Mon Apr 17 14:43:12 2023
 TOTAL  Time  : 9
 SEE INFORMATION IN : OUT.blpstest/
