                                                                                     
                             WELCOME TO ABACUS v3.0                                  
                                                                                     
               'Atomic-orbital Based Ab-initio Computation at UStc'                  
                                                                                     
                     Website: http://abacus.ustc.edu.cn/                             
                                                                                     
    Version: Parallel, in development
    Processor Number is 1
    Start Time is Mon Mar  6 13:58:28 2023
                                                                                     
 ------------------------------------------------------------------------------------

 READING GENERAL INFORMATION
                           global_out_dir = OUT.blpstest/
                           global_in_card = INPUT
                               pseudo_dir = 
                              orbital_dir = 
                                    DRANK = 1
                                    DSIZE = 1
                                   DCOLOR = 1
                                    GRANK = 1
                                    GSIZE = 1
 The esolver type has been set to : ksdft_pw




 >>>>>>>>>>>>>>>>>>>>>>>>>>>>>>>>>>>>>>>>>>>>>>>>>>>>>>>>>>>>>>>>>>>>>>
 |                                                                    |
 | Reading atom information in unitcell:                              |
 | From the input file and the structure file we know the number of   |
 | different elments in this unitcell, then we list the detail        |
 | information for each element, especially the zeta and polar atomic |
 | orbital number for each element. The total atom number is counted. |
 | We calculate the nearest atom distance for each atom and show the  |
 | Cartesian and Direct coordinates for each atom. We list the file   |
 | address for atomic orbitals. The volume and the lattice vectors    |
 | in real and reciprocal space is also shown.                        |
 |                                                                    |
 <<<<<<<<<<<<<<<<<<<<<<<<<<<<<<<<<<<<<<<<<<<<<<<<<<<<<<<<<<<<<<<<<<<<<<




 READING UNITCELL INFORMATION
                                    ntype = 2
                 atom label for species 1 = Li
                 atom label for species 2 = Mg
                  lattice constant (Bohr) = 13.7368
              lattice constant (Angstrom) = 7.26922

 READING ATOM TYPE 1
                               atom label = Li
                      L=0, number of zeta = 1
                      L=1, number of zeta = 1
                      L=2, number of zeta = 1
             number of atom for this type = 12
                      start magnetization = FALSE
                      start magnetization = FALSE
                      start magnetization = FALSE
                      start magnetization = FALSE
                      start magnetization = FALSE
                      start magnetization = FALSE
                      start magnetization = FALSE
                      start magnetization = FALSE
                      start magnetization = FALSE
                      start magnetization = FALSE
                      start magnetization = FALSE
                      start magnetization = FALSE

 READING ATOM TYPE 2
                               atom label = Mg
                      L=0, number of zeta = 1
                      L=1, number of zeta = 1
                      L=2, number of zeta = 1
             number of atom for this type = 4
                      start magnetization = FALSE
                      start magnetization = FALSE
                      start magnetization = FALSE
                      start magnetization = FALSE

                        TOTAL ATOM NUMBER = 16

 DIRECT COORDINATES
         atom                   x                   y                   z                 mag                  vx                  vy                  vz
     taud_Li1                0.75                0.75                0.25                   0                   0                   0                   0
     taud_Li2                   0                 0.5                   0                   0                   0                   0                   0
     taud_Li3                0.25                0.75                0.25                   0                   0                   0                   0
     taud_Li4                0.75                0.25                0.75                   0                   0                   0                   0
     taud_Li5                   0                   0                 0.5                   0                   0                   0                   0
     taud_Li6                0.25                0.25                0.75                   0                   0                   0                   0
     taud_Li7                0.25                0.75                0.75                   0                   0                   0                   0
     taud_Li8                 0.5                 0.5                 0.5                   0                   0                   0                   0
     taud_Li9                0.75                0.75                0.75                   0                   0                   0                   0
    taud_Li10                0.25                0.25                0.25                   0                   0                   0                   0
    taud_Li11                 0.5                   0                   0                   0                   0                   0                   0
    taud_Li12                0.75                0.25                0.25                   0                   0                   0                   0
     taud_Mg1                   0                   0                   0                   0                   0                   0                   0
     taud_Mg2                   0                 0.5                 0.5                   0                   0                   0                   0
     taud_Mg3                 0.5                   0                 0.5                   0                   0                   0                   0
     taud_Mg4                 0.5                 0.5                   0                   0                   0                   0                   0


                          Volume (Bohr^3) = 2592.15
                             Volume (A^3) = 384.117

 Lattice vectors: (Cartesian coordinate: in unit of a_0)
                   +1                  +0                  +0
                   +0                  +1                  +0
                   +0                  +0                  +1
 Reciprocal vectors: (Cartesian coordinate: in unit of 2 pi/a_0)
                   +1                  -0                  +0
                   -0                  +1                  -0
                   +0                  -0                  +1




 >>>>>>>>>>>>>>>>>>>>>>>>>>>>>>>>>>>>>>>>>>>>>>>>>>>>>>>>>>>>>>>>>>>>>>
 |                                                                    |
 | Reading pseudopotentials files:                                    |
 | The pseudopotential file is in UPF format. The 'NC' indicates that |
 | the type of pseudopotential is 'norm conserving'. Functional of    |
 | exchange and correlation is decided by 4 given parameters in UPF   |
 | file.  We also read in the 'core correction' if there exists.      |
 | Also we can read the valence electrons number and the maximal      |
 | angular momentum used in this pseudopotential. We also read in the |
 | trail wave function, trail atomic density and local-pseudopotential|
 | on logrithmic grid. The non-local pseudopotential projector is also|
 | read in if there is any.                                           |
 |                                                                    |
 <<<<<<<<<<<<<<<<<<<<<<<<<<<<<<<<<<<<<<<<<<<<<<<<<<<<<<<<<<<<<<<<<<<<<<




                PAO radial cut off (Bohr) = 16

 Read in pseudopotential file is li.gga.psp.1
                     pseudopotential type = 
          exchange-correlation functional = XC_GGA_X_PBE+XC_GGA_C_PBE
                 nonlocal core correction = 0
                        valence electrons = 1
                                     lmax = 0
                           number of zeta = 0
                     number of projectors = 0
                PAO radial cut off (Bohr) = 16

 Read in pseudopotential file is mg.gga.psp
                     pseudopotential type = 
          exchange-correlation functional = XC_GGA_X_PBE+XC_GGA_C_PBE
                 nonlocal core correction = 0
                        valence electrons = 2
                                     lmax = 0
                           number of zeta = 0
                     number of projectors = 0
Notice: symbol 'Li_locpsp' is not an element symbol!!!! set the covalent radius to be 0.
Notice: symbol 'mg_locpsp' is not an element symbol!!!! set the covalent radius to be 0.
     initial pseudo atomic orbital number = 0
                                   NLOCAL = 144




 >>>>>>>>>>>>>>>>>>>>>>>>>>>>>>>>>>>>>>>>>>>>>>>>>>>>>>>>>>>>>>>>>>>>>>
 |                                                                    |
 | Setup plane waves of charge/potential:                             |
 | Use the energy cutoff and the lattice vectors to generate the      |
 | dimensions of FFT grid. The number of FFT grid on each processor   |
 | is 'nrxx'. The number of plane wave basis in reciprocal space is   |
 | different for charege/potential and wave functions. We also set    |
 | the 'sticks' for the parallel of FFT. The number of plane waves    |
 | is 'npw' in each processor.                                        |
 <<<<<<<<<<<<<<<<<<<<<<<<<<<<<<<<<<<<<<<<<<<<<<<<<<<<<<<<<<<<<<<<<<<<<<





 SETUP THE PLANE WAVE BASIS
 energy cutoff for charge/potential (unit:Ry) = 180
          [fft grid for charge/potential] = 60, 60, 60
                      [fft grid division] = 1, 1, 1
      [big fft grid for charge/potential] = 60, 60, 60
                                     nbxx = 216000
                                     nrxx = 216000

 SETUP PLANE WAVES FOR CHARGE/POTENTIAL
                    number of plane waves = 105759
                         number of sticks = 2709

 PARALLEL PW FOR CHARGE/POTENTIAL
     PROC   COLUMNS(POT)             PW
        1           2709         105759
 --------------- sum -------------------
        1           2709         105759
                            number of |g| = 720
                                  max |g| = 859
                                  min |g| = 0

 SETUP THE ELECTRONS NUMBER
            electron number of element Li = 1
      total electron number of element Li = 12
            electron number of element Mg = 2
      total electron number of element Mg = 8
            AUTOSET number of electrons:  = 20
 DONE : SETUP UNITCELL Time : 0.951243 (SEC)





 >>>>>>>>>>>>>>>>>>>>>>>>>>>>>>>>>>>>>>>>>>>>>>>>>>>>>>>>>>>>>>>>>>>>>>
 |                                                                    |
 | Doing symmetry analysis:                                           |
 | We calculate the norm of 3 vectors and the angles between them,    |
 | the type of Bravais lattice is given. We can judge if the unticell |
 | is a primitive cell. Finally we give the point group operation for |
 | this unitcell. We we use the point group operations to do symmetry |
 | analysis on given k-point mesh and the charge density.             |
 |                                                                    |
 <<<<<<<<<<<<<<<<<<<<<<<<<<<<<<<<<<<<<<<<<<<<<<<<<<<<<<<<<<<<<<<<<<<<<<




 LATTICE VECTORS: (CARTESIAN COORDINATE: IN UNIT OF A0)
                   +1                  +0                  +0
                   +0                  +1                  +0
                   +0                  +0                  +1
                       right hand lattice = 1
                                   NORM_A = 1
                                   NORM_B = 1
                                   NORM_C = 1
                           ALPHA (DEGREE) = 90
                           BETA  (DEGREE) = 90
                           GAMMA (DEGREE) = 90
                             BRAVAIS TYPE = 1
                     BRAVAIS LATTICE NAME = 01. Cubic P (simple)
                                    IBRAV = 1
                                  BRAVAIS = SIMPLE CUBIC
                       LATTICE CONSTANT A = 1
                                    ibrav = 1
                        ROTATION MATRICES = 48
              PURE POINT GROUP OPERATIONS = 48
                   SPACE GROUP OPERATIONS = 48
                              POINT GROUP = O_h
Warning : If the optimal symmetric configuration is not the input configuration, 
you have to manually change configurations, ABACUS would only calculate the input structure.
 DONE : SYMMETRY Time : 1.01569 (SEC)





 >>>>>>>>>>>>>>>>>>>>>>>>>>>>>>>>>>>>>>>>>>>>>>>>>>>>>>>>>>>>>>>>>>>>>>
 |                                                                    |
 | Setup K-points                                                     |
 | We setup the k-points according to input parameters.               |
 | The reduced k-points are set according to symmetry operations.     |
 | We treat the spin as another set of k-points.                      |
 |                                                                    |
 <<<<<<<<<<<<<<<<<<<<<<<<<<<<<<<<<<<<<<<<<<<<<<<<<<<<<<<<<<<<<<<<<<<<<<





 SETUP K-POINTS
                                    nspin = 1
                   Input type of k points = Monkhorst-Pack(Gamma)
                                   nkstot = 1728
                               nkstot_ibz = 84
      IBZ             DirectX             DirectY             DirectZ              Weight    ibz2bz
        1                   0                   0                   0         0.000578704         0
        2            0.916667                   0                   0          0.00347222         1
        3            0.833333                   0                   0          0.00347222         2
        4                0.75                   0                   0          0.00347222         3
        5            0.666667                   0                   0          0.00347222         4
        6            0.583333                   0                   0          0.00347222         5
        7                   0                   0                 0.5          0.00173611         6
        8            0.916667            0.916667                   0          0.00694444        13
        9            0.916667            0.833333                   0           0.0138889        14
       10            0.916667                0.75                   0           0.0138889        15
       11            0.916667            0.666667                   0           0.0138889        16
       12            0.916667            0.583333                   0           0.0138889        17
       13            0.916667                 0.5                   0          0.00694444        18
       14            0.833333            0.833333                   0          0.00694444        26
       15            0.833333                0.75                   0           0.0138889        27
       16            0.833333            0.666667                   0           0.0138889        28
       17            0.833333            0.583333                   0           0.0138889        29
       18            0.833333                 0.5                   0          0.00694444        30
       19                0.75                0.75                   0          0.00694444        39
       20                0.75            0.666667                   0           0.0138889        40
       21                0.75            0.583333                   0           0.0138889        41
       22                0.75                 0.5                   0          0.00694444        42
       23            0.666667            0.666667                   0          0.00694444        52
       24            0.666667            0.583333                   0           0.0138889        53
       25            0.666667                 0.5                   0          0.00694444        54
       26            0.583333            0.583333                   0          0.00694444        65
       27            0.583333                 0.5                   0          0.00694444        66
       28                   0                 0.5                 0.5          0.00173611        78
       29            0.916667            0.916667            0.916667          0.00462963       157
       30            0.916667            0.916667            0.833333           0.0138889       158
       31            0.916667            0.916667                0.75           0.0138889       159
       32            0.916667            0.916667            0.666667           0.0138889       160
       33            0.916667            0.916667            0.583333           0.0138889       161
       34            0.916667            0.916667                 0.5          0.00694444       162
       35            0.916667            0.833333            0.833333           0.0138889       170
       36            0.916667            0.833333                0.75           0.0277778       171
       37            0.916667            0.833333            0.666667           0.0277778       172
       38            0.916667            0.833333            0.583333           0.0277778       173
       39            0.916667            0.833333                 0.5           0.0138889       174
       40            0.916667                0.75                0.75           0.0138889       183
       41            0.916667                0.75            0.666667           0.0277778       184
       42            0.916667                0.75            0.583333           0.0277778       185
       43            0.916667                0.75                 0.5           0.0138889       186
       44            0.916667            0.666667            0.666667           0.0138889       196
       45            0.916667            0.666667            0.583333           0.0277778       197
       46            0.916667            0.666667                 0.5           0.0138889       198
       47            0.916667            0.583333            0.583333           0.0138889       209
       48            0.916667            0.583333                 0.5           0.0138889       210
       49            0.916667                 0.5                 0.5          0.00347222       222
       50            0.833333            0.833333            0.833333          0.00462963       314
       51            0.833333                0.75            0.833333           0.0138889       315
       52            0.833333            0.833333            0.666667           0.0138889       316
       53            0.833333            0.833333            0.583333           0.0138889       317
       54            0.833333            0.833333                 0.5          0.00694444       318
       55            0.833333                0.75                0.75           0.0138889       327
       56            0.833333                0.75            0.666667           0.0277778       328
       57            0.833333                0.75            0.583333           0.0277778       329
       58            0.833333                0.75                 0.5           0.0138889       330
       59            0.666667            0.666667            0.833333           0.0138889       340
       60            0.666667            0.583333            0.833333           0.0277778       341
       61            0.833333            0.666667                 0.5           0.0138889       342
       62            0.833333            0.583333            0.583333           0.0138889       353
       63            0.833333            0.583333                 0.5           0.0138889       354
       64            0.833333                 0.5                 0.5          0.00347222       366
       65                0.75                0.75                0.75          0.00462963       471
       66                0.75                0.75            0.666667           0.0138889       472
       67                0.75                0.75            0.583333           0.0138889       473
       68                0.75                0.75                 0.5          0.00694444       474
       69                0.75            0.666667            0.666667           0.0138889       484
       70                0.75            0.666667            0.583333           0.0277778       485
       71                0.75            0.666667                 0.5           0.0138889       486
       72                0.75            0.583333            0.583333           0.0138889       497
       73                0.75            0.583333                 0.5           0.0138889       498
       74                0.75                 0.5                 0.5          0.00347222       510
       75            0.666667            0.666667            0.666667          0.00462963       628
       76            0.666667            0.666667            0.583333           0.0138889       629
       77            0.666667            0.666667                 0.5          0.00694444       630
       78            0.666667            0.583333            0.583333           0.0138889       641
       79            0.666667            0.583333                 0.5           0.0138889       642
       80            0.666667                 0.5                 0.5          0.00347222       654
       81            0.583333            0.583333            0.583333          0.00462963       785
       82            0.583333                 0.5            0.583333          0.00694444       786
       83            0.583333                 0.5                 0.5          0.00347222       798
       84                 0.5                 0.5                 0.5         0.000578704       942
                               nkstot now = 84

  KPOINTS            DIRECT_X            DIRECT_Y            DIRECT_Z              WEIGHT
        1                   0                   0                   0         0.000578704
        2            0.916667                   0                   0          0.00347222
        3            0.833333                   0                   0          0.00347222
        4                0.75                   0                   0          0.00347222
        5            0.666667                   0                   0          0.00347222
        6            0.583333                   0                   0          0.00347222
        7                   0                   0                 0.5          0.00173611
        8            0.916667            0.916667                   0          0.00694444
        9            0.916667            0.833333                   0           0.0138889
       10            0.916667                0.75                   0           0.0138889
       11            0.916667            0.666667                   0           0.0138889
       12            0.916667            0.583333                   0           0.0138889
       13            0.916667                 0.5                   0          0.00694444
       14            0.833333            0.833333                   0          0.00694444
       15            0.833333                0.75                   0           0.0138889
       16            0.833333            0.666667                   0           0.0138889
       17            0.833333            0.583333                   0           0.0138889
       18            0.833333                 0.5                   0          0.00694444
       19                0.75                0.75                   0          0.00694444
       20                0.75            0.666667                   0           0.0138889
       21                0.75            0.583333                   0           0.0138889
       22                0.75                 0.5                   0          0.00694444
       23            0.666667            0.666667                   0          0.00694444
       24            0.666667            0.583333                   0           0.0138889
       25            0.666667                 0.5                   0          0.00694444
       26            0.583333            0.583333                   0          0.00694444
       27            0.583333                 0.5                   0          0.00694444
       28                   0                 0.5                 0.5          0.00173611
       29            0.916667            0.916667            0.916667          0.00462963
       30            0.916667            0.916667            0.833333           0.0138889
       31            0.916667            0.916667                0.75           0.0138889
       32            0.916667            0.916667            0.666667           0.0138889
       33            0.916667            0.916667            0.583333           0.0138889
       34            0.916667            0.916667                 0.5          0.00694444
       35            0.916667            0.833333            0.833333           0.0138889
       36            0.916667            0.833333                0.75           0.0277778
       37            0.916667            0.833333            0.666667           0.0277778
       38            0.916667            0.833333            0.583333           0.0277778
       39            0.916667            0.833333                 0.5           0.0138889
       40            0.916667                0.75                0.75           0.0138889
       41            0.916667                0.75            0.666667           0.0277778
       42            0.916667                0.75            0.583333           0.0277778
       43            0.916667                0.75                 0.5           0.0138889
       44            0.916667            0.666667            0.666667           0.0138889
       45            0.916667            0.666667            0.583333           0.0277778
       46            0.916667            0.666667                 0.5           0.0138889
       47            0.916667            0.583333            0.583333           0.0138889
       48            0.916667            0.583333                 0.5           0.0138889
       49            0.916667                 0.5                 0.5          0.00347222
       50            0.833333            0.833333            0.833333          0.00462963
       51            0.833333                0.75            0.833333           0.0138889
       52            0.833333            0.833333            0.666667           0.0138889
       53            0.833333            0.833333            0.583333           0.0138889
       54            0.833333            0.833333                 0.5          0.00694444
       55            0.833333                0.75                0.75           0.0138889
       56            0.833333                0.75            0.666667           0.0277778
       57            0.833333                0.75            0.583333           0.0277778
       58            0.833333                0.75                 0.5           0.0138889
       59            0.666667            0.666667            0.833333           0.0138889
       60            0.666667            0.583333            0.833333           0.0277778
       61            0.833333            0.666667                 0.5           0.0138889
       62            0.833333            0.583333            0.583333           0.0138889
       63            0.833333            0.583333                 0.5           0.0138889
       64            0.833333                 0.5                 0.5          0.00347222
       65                0.75                0.75                0.75          0.00462963
       66                0.75                0.75            0.666667           0.0138889
       67                0.75                0.75            0.583333           0.0138889
       68                0.75                0.75                 0.5          0.00694444
       69                0.75            0.666667            0.666667           0.0138889
       70                0.75            0.666667            0.583333           0.0277778
       71                0.75            0.666667                 0.5           0.0138889
       72                0.75            0.583333            0.583333           0.0138889
       73                0.75            0.583333                 0.5           0.0138889
       74                0.75                 0.5                 0.5          0.00347222
       75            0.666667            0.666667            0.666667          0.00462963
       76            0.666667            0.666667            0.583333           0.0138889
       77            0.666667            0.666667                 0.5          0.00694444
       78            0.666667            0.583333            0.583333           0.0138889
       79            0.666667            0.583333                 0.5           0.0138889
       80            0.666667                 0.5                 0.5          0.00347222
       81            0.583333            0.583333            0.583333          0.00462963
       82            0.583333                 0.5            0.583333          0.00694444
       83            0.583333                 0.5                 0.5          0.00347222
       84                 0.5                 0.5                 0.5         0.000578704

           k-point number in this process = 84
       minimum distributed K point number = 84

  KPOINTS         CARTESIAN_X         CARTESIAN_Y         CARTESIAN_Z              WEIGHT
        1                   0                   0                   0          0.00115741
        2            0.916667                   0                   0          0.00694444
        3            0.833333                   0                   0          0.00694444
        4                0.75                   0                   0          0.00694444
        5            0.666667                   0                   0          0.00694444
        6            0.583333                   0                   0          0.00694444
        7                   0                   0                 0.5          0.00347222
        8            0.916667            0.916667                   0           0.0138889
        9            0.916667            0.833333                   0           0.0277778
       10            0.916667                0.75                   0           0.0277778
       11            0.916667            0.666667                   0           0.0277778
       12            0.916667            0.583333                   0           0.0277778
       13            0.916667                 0.5                   0           0.0138889
       14            0.833333            0.833333                   0           0.0138889
       15            0.833333                0.75                   0           0.0277778
       16            0.833333            0.666667                   0           0.0277778
       17            0.833333            0.583333                   0           0.0277778
       18            0.833333                 0.5                   0           0.0138889
       19                0.75                0.75                   0           0.0138889
       20                0.75            0.666667                   0           0.0277778
       21                0.75            0.583333                   0           0.0277778
       22                0.75                 0.5                   0           0.0138889
       23            0.666667            0.666667                   0           0.0138889
       24            0.666667            0.583333                   0           0.0277778
       25            0.666667                 0.5                   0           0.0138889
       26            0.583333            0.583333                   0           0.0138889
       27            0.583333                 0.5                   0           0.0138889
       28                   0                 0.5                 0.5          0.00347222
       29            0.916667            0.916667            0.916667          0.00925926
       30            0.916667            0.916667            0.833333           0.0277778
       31            0.916667            0.916667                0.75           0.0277778
       32            0.916667            0.916667            0.666667           0.0277778
       33            0.916667            0.916667            0.583333           0.0277778
       34            0.916667            0.916667                 0.5           0.0138889
       35            0.916667            0.833333            0.833333           0.0277778
       36            0.916667            0.833333                0.75           0.0555556
       37            0.916667            0.833333            0.666667           0.0555556
       38            0.916667            0.833333            0.583333           0.0555556
       39            0.916667            0.833333                 0.5           0.0277778
       40            0.916667                0.75                0.75           0.0277778
       41            0.916667                0.75            0.666667           0.0555556
       42            0.916667                0.75            0.583333           0.0555556
       43            0.916667                0.75                 0.5           0.0277778
       44            0.916667            0.666667            0.666667           0.0277778
       45            0.916667            0.666667            0.583333           0.0555556
       46            0.916667            0.666667                 0.5           0.0277778
       47            0.916667            0.583333            0.583333           0.0277778
       48            0.916667            0.583333                 0.5           0.0277778
       49            0.916667                 0.5                 0.5          0.00694444
       50            0.833333            0.833333            0.833333          0.00925926
       51            0.833333                0.75            0.833333           0.0277778
       52            0.833333            0.833333            0.666667           0.0277778
       53            0.833333            0.833333            0.583333           0.0277778
       54            0.833333            0.833333                 0.5           0.0138889
       55            0.833333                0.75                0.75           0.0277778
       56            0.833333                0.75            0.666667           0.0555556
       57            0.833333                0.75            0.583333           0.0555556
       58            0.833333                0.75                 0.5           0.0277778
       59            0.666667            0.666667            0.833333           0.0277778
       60            0.666667            0.583333            0.833333           0.0555556
       61            0.833333            0.666667                 0.5           0.0277778
       62            0.833333            0.583333            0.583333           0.0277778
       63            0.833333            0.583333                 0.5           0.0277778
       64            0.833333                 0.5                 0.5          0.00694444
       65                0.75                0.75                0.75          0.00925926
       66                0.75                0.75            0.666667           0.0277778
       67                0.75                0.75            0.583333           0.0277778
       68                0.75                0.75                 0.5           0.0138889
       69                0.75            0.666667            0.666667           0.0277778
       70                0.75            0.666667            0.583333           0.0555556
       71                0.75            0.666667                 0.5           0.0277778
       72                0.75            0.583333            0.583333           0.0277778
       73                0.75            0.583333                 0.5           0.0277778
       74                0.75                 0.5                 0.5          0.00694444
       75            0.666667            0.666667            0.666667          0.00925926
       76            0.666667            0.666667            0.583333           0.0277778
       77            0.666667            0.666667                 0.5           0.0138889
       78            0.666667            0.583333            0.583333           0.0277778
       79            0.666667            0.583333                 0.5           0.0277778
       80            0.666667                 0.5                 0.5          0.00694444
       81            0.583333            0.583333            0.583333          0.00925926
       82            0.583333                 0.5            0.583333           0.0138889
       83            0.583333                 0.5                 0.5          0.00694444
       84                 0.5                 0.5                 0.5          0.00115741

  KPOINTS            DIRECT_X            DIRECT_Y            DIRECT_Z              WEIGHT
        1                   0                   0                   0          0.00115741
        2            0.916667                   0                   0          0.00694444
        3            0.833333                   0                   0          0.00694444
        4                0.75                   0                   0          0.00694444
        5            0.666667                   0                   0          0.00694444
        6            0.583333                   0                   0          0.00694444
        7                   0                   0                 0.5          0.00347222
        8            0.916667            0.916667                   0           0.0138889
        9            0.916667            0.833333                   0           0.0277778
       10            0.916667                0.75                   0           0.0277778
       11            0.916667            0.666667                   0           0.0277778
       12            0.916667            0.583333                   0           0.0277778
       13            0.916667                 0.5                   0           0.0138889
       14            0.833333            0.833333                   0           0.0138889
       15            0.833333                0.75                   0           0.0277778
       16            0.833333            0.666667                   0           0.0277778
       17            0.833333            0.583333                   0           0.0277778
       18            0.833333                 0.5                   0           0.0138889
       19                0.75                0.75                   0           0.0138889
       20                0.75            0.666667                   0           0.0277778
       21                0.75            0.583333                   0           0.0277778
       22                0.75                 0.5                   0           0.0138889
       23            0.666667            0.666667                   0           0.0138889
       24            0.666667            0.583333                   0           0.0277778
       25            0.666667                 0.5                   0           0.0138889
       26            0.583333            0.583333                   0           0.0138889
       27            0.583333                 0.5                   0           0.0138889
       28                   0                 0.5                 0.5          0.00347222
       29            0.916667            0.916667            0.916667          0.00925926
       30            0.916667            0.916667            0.833333           0.0277778
       31            0.916667            0.916667                0.75           0.0277778
       32            0.916667            0.916667            0.666667           0.0277778
       33            0.916667            0.916667            0.583333           0.0277778
       34            0.916667            0.916667                 0.5           0.0138889
       35            0.916667            0.833333            0.833333           0.0277778
       36            0.916667            0.833333                0.75           0.0555556
       37            0.916667            0.833333            0.666667           0.0555556
       38            0.916667            0.833333            0.583333           0.0555556
       39            0.916667            0.833333                 0.5           0.0277778
       40            0.916667                0.75                0.75           0.0277778
       41            0.916667                0.75            0.666667           0.0555556
       42            0.916667                0.75            0.583333           0.0555556
       43            0.916667                0.75                 0.5           0.0277778
       44            0.916667            0.666667            0.666667           0.0277778
       45            0.916667            0.666667            0.583333           0.0555556
       46            0.916667            0.666667                 0.5           0.0277778
       47            0.916667            0.583333            0.583333           0.0277778
       48            0.916667            0.583333                 0.5           0.0277778
       49            0.916667                 0.5                 0.5          0.00694444
       50            0.833333            0.833333            0.833333          0.00925926
       51            0.833333                0.75            0.833333           0.0277778
       52            0.833333            0.833333            0.666667           0.0277778
       53            0.833333            0.833333            0.583333           0.0277778
       54            0.833333            0.833333                 0.5           0.0138889
       55            0.833333                0.75                0.75           0.0277778
       56            0.833333                0.75            0.666667           0.0555556
       57            0.833333                0.75            0.583333           0.0555556
       58            0.833333                0.75                 0.5           0.0277778
       59            0.666667            0.666667            0.833333           0.0277778
       60            0.666667            0.583333            0.833333           0.0555556
       61            0.833333            0.666667                 0.5           0.0277778
       62            0.833333            0.583333            0.583333           0.0277778
       63            0.833333            0.583333                 0.5           0.0277778
       64            0.833333                 0.5                 0.5          0.00694444
       65                0.75                0.75                0.75          0.00925926
       66                0.75                0.75            0.666667           0.0277778
       67                0.75                0.75            0.583333           0.0277778
       68                0.75                0.75                 0.5           0.0138889
       69                0.75            0.666667            0.666667           0.0277778
       70                0.75            0.666667            0.583333           0.0555556
       71                0.75            0.666667                 0.5           0.0277778
       72                0.75            0.583333            0.583333           0.0277778
       73                0.75            0.583333                 0.5           0.0277778
       74                0.75                 0.5                 0.5          0.00694444
       75            0.666667            0.666667            0.666667          0.00925926
       76            0.666667            0.666667            0.583333           0.0277778
       77            0.666667            0.666667                 0.5           0.0138889
       78            0.666667            0.583333            0.583333           0.0277778
       79            0.666667            0.583333                 0.5           0.0277778
       80            0.666667                 0.5                 0.5          0.00694444
       81            0.583333            0.583333            0.583333          0.00925926
       82            0.583333                 0.5            0.583333           0.0138889
       83            0.583333                 0.5                 0.5          0.00694444
       84                 0.5                 0.5                 0.5          0.00115741
 DONE : INIT K-POINTS Time : 1.0457 (SEC)





 >>>>>>>>>>>>>>>>>>>>>>>>>>>>>>>>>>>>>>>>>>>>>>>>>>>>>>>>>>>>>>>>>>>>>>
 |                                                                    |
 | Setup plane waves of wave functions:                               |
 | Use the energy cutoff and the lattice vectors to generate the      |
 | dimensions of FFT grid. The number of FFT grid on each processor   |
 | is 'nrxx'. The number of plane wave basis in reciprocal space is   |
 | different for charege/potential and wave functions. We also set    |
 | the 'sticks' for the parallel of FFT. The number of plane wave of  |
 | each k-point is 'npwk[ik]' in each processor                       |
 <<<<<<<<<<<<<<<<<<<<<<<<<<<<<<<<<<<<<<<<<<<<<<<<<<<<<<<<<<<<<<<<<<<<<<





 SETUP PLANE WAVES FOR WAVE FUNCTIONS
     energy cutoff for wavefunc (unit:Ry) = 45
            [fft grid for wave functions] = 60, 60, 60
                    number of plane waves = 17941
                         number of sticks = 829

 PARALLEL PW FOR WAVE FUNCTIONS
     PROC   COLUMNS(POT)             PW
        1            829          17941
 --------------- sum -------------------
        1            829          17941
 DONE : INIT PLANEWAVE Time : 1.33989 (SEC)

                           occupied bands = 10
                                   NBANDS = 28
                                     npwx = 13264

 SETUP NONLOCAL PSEUDOPOTENTIALS IN PLANE WAVE BASIS
 Li non-local projectors:
 Mg non-local projectors:
      TOTAL NUMBER OF NONLOCAL PROJECTORS = 0

 nhm = 0, not allocate some matrix. DONE : LOCAL POTENTIAL Time : 2.5003 (SEC)


 Init Non-Local PseudoPotential table : 
 Init Non-Local-Pseudopotential done.
 DONE : NON-LOCAL POTENTIAL Time : 2.50069 (SEC)


 Make real space PAO into reciprocal space.
       max mesh points in Pseudopotential = 1601
     dq(describe PAO in reciprocal space) = 0.01
                                    max q = 810

 number of pseudo atomic orbitals for Li is 0

 number of pseudo atomic orbitals for Mg is 0
 DONE : INIT BASIS Time : 2.50099 (SEC)

Successful completion of Potential's registration : local
Successful completion of Potential's registration : hartree
Successful completion of Potential's registration : xc
                                 init_chg = atomic
 DONE : INIT SCF Time : 3.752 (SEC)


 PW ALGORITHM --------------- ION=   1  ELEC=   1--------------------------------
Average iterative diagonalization steps: 8.47874 ; where current threshold is: 0.01 . 

 Density error is 0.50536673391
                          Error Threshold = 0.01

       Energy                       Rydberg                            eV
   E_KohnSham                -13.6479068296                -185.689298656
     E_Harris                -13.2988544264                -180.940197071
      E_Fermi              +0.0843167659877                +1.14718845436

 PW ALGORITHM --------------- ION=   1  ELEC=   2--------------------------------
Average iterative diagonalization steps: 2.61862244898 ; where current threshold is: 0.00252683366955 . 

 Density error is 0.0301533000666
                          Error Threshold = 0.00252683366955

       Energy                       Rydberg                            eV
   E_KohnSham                -13.8889980064                -188.969512398
     E_Harris                 -13.781722066                 -187.50994835
      E_Fermi              +0.0639920396728               +0.870656366192

 PW ALGORITHM --------------- ION=   1  ELEC=   3--------------------------------
Average iterative diagonalization steps: 4.27763605442 ; where current threshold is: 0.000150766500333 . 

 Density error is 0.00168740906069
                          Error Threshold = 0.000150766500333

       Energy                       Rydberg                            eV
   E_KohnSham                -13.8968645928                -189.076542797
     E_Harris                -13.8969065659                 -189.07711387
      E_Fermi              +0.0592174368152               +0.805694561641

 PW ALGORITHM --------------- ION=   1  ELEC=   4--------------------------------
Average iterative diagonalization steps: 4.21215986395 ; where current threshold is: 8.43704530343e-06 . 

 Density error is 0.00453128467764
                          Error Threshold = 8.43704530343e-06

       Energy                       Rydberg                            eV
   E_KohnSham                  -13.89671783                -189.074545986
     E_Harris                -13.8984999551                -189.098793042
      E_Fermi              +0.0584599412982               +0.795388306401

 PW ALGORITHM --------------- ION=   1  ELEC=   5--------------------------------
Average iterative diagonalization steps: 2.92091836735 ; where current threshold is: 8.43704530343e-06 . 

 Density error is 0.000150300482037
                          Error Threshold = 8.43704530343e-06

       Energy                       Rydberg                            eV
   E_KohnSham                -13.8976346846                -189.087020433
     E_Harris                -13.8976761456                -189.087584539
      E_Fermi              +0.0584937872442               +0.795848804121

 PW ALGORITHM --------------- ION=   1  ELEC=   6--------------------------------
Average iterative diagonalization steps: 2.88945578231 ; where current threshold is: 7.51502410183e-07 . 

 Density error is 8.52609347431e-07
                          Error Threshold = 7.51502410183e-07

       Energy                       Rydberg                            eV
   E_KohnSham                -13.8976607035                -189.087374439
     E_Harris                -13.8976607584                -189.087375185
      E_Fermi              +0.0585597444898               +0.796746198485

 PW ALGORITHM --------------- ION=   1  ELEC=   7--------------------------------
Average iterative diagonalization steps: 5.57482993197 ; where current threshold is: 4.26304673716e-09 . 

 Density error is 1.23612809775e-07
                          Error Threshold = 4.26304673716e-09

       Energy                       Rydberg                            eV
   E_KohnSham                -13.8976619734                -189.087391717
     E_Harris                -13.8976619952                -189.087392012
      E_Fermi              +0.0585580200677               +0.796722736519

 PW ALGORITHM --------------- ION=   1  ELEC=   8--------------------------------
Average iterative diagonalization steps: 2.71301020408 ; where current threshold is: 6.18064048875e-10 . 

 Density error is 7.22799085865e-09
                          Error Threshold = 6.18064048875e-10

       Energy                       Rydberg                            eV
   E_KohnSham                -13.8976619849                -189.087391873
     E_Harris                -13.8976619869                  -189.0873919
      E_Fermi               +0.058553460554               +0.796660701153

 PW ALGORITHM --------------- ION=   1  ELEC=   9--------------------------------
Average iterative diagonalization steps: 4.18664965986 ; where current threshold is: 3.61399542933e-11 . 

 Density error is 8.8790886554e-10
                          Error Threshold = 3.61399542933e-11

       Energy                       Rydberg                            eV
   E_KohnSham                -13.8976619877                -189.087391911
     E_Harris                -13.8976619883                -189.087391918
       E_band                -1.84748598402                -25.1363363579
   E_one_elec                +7.35856709353                +100.118441587
    E_Hartree               +0.223417705255                +3.03975382555
         E_xc                -7.42581124099                 -101.03334515
      E_Ewald                -14.0514643422                -191.179980298
      E_demet             -0.00237120331701              -0.0322618762278
      E_descf                            +0                            +0
        E_exx                            +0                            +0
      E_Fermi              +0.0585518969763               +0.796639427586

 charge density convergence is achieved
 final etot is -189.087391911 eV

 STATE ENERGY(eV) AND OCCUPATIONS    NSPIN == 1
 1/84 kpoint (Cartesian) = 0 0 0 (13205 pws)
       1       -4.26990     0.00115741
       2       -1.83991     0.00115741
       3       -1.83990     0.00115741
       4       -1.83990     0.00115741
       5       -1.18006     0.00115741
       6       -1.18006     0.00115741
       7       -1.18006     0.00115741
       8        1.09160    1.98230e-08
       9        1.09160    1.98230e-08
      10        1.09160    1.98230e-08
      11        1.09161    1.98215e-08
      12        1.09161    1.98215e-08
      13        1.09161    1.98215e-08
      14        1.60984        0.00000
      15        1.60984        0.00000
      16        1.60986        0.00000
      17        2.29343        0.00000
      18        2.29343        0.00000
      19        2.29343        0.00000
      20        3.42486        0.00000
      21        3.42486        0.00000
      22        3.42486        0.00000
      23        4.37478        0.00000
      24        4.37478        0.00000
      25        4.37478        0.00000
      26        4.67288        0.00000
      27        6.05318        0.00000
      28        6.95188        0.00000

 2/84 kpoint (Cartesian) = 0.916667 0.00000 0.00000 (13221 pws)
       1       -4.25072     0.00694444
       2       -2.04963     0.00694444
       3       -1.82667     0.00694444
       4       -1.82666     0.00694444
       5       -1.16086     0.00694444
       6       -1.16086     0.00694444
       7      -0.938685     0.00694444
       8       0.855165     0.00142721
       9       0.855170     0.00142709
      10       0.948615    0.000113839
      11       0.948615    0.000113839
      12        1.11081    3.54152e-08
      13        1.11081    3.54152e-08
      14        1.63575        0.00000
      15        1.89035        0.00000
      16        1.89036        0.00000
      17        2.31225        0.00000
      18        2.47523        0.00000
      19        2.47523        0.00000
      20        3.25909        0.00000
      21        3.25909        0.00000
      22        3.27965        0.00000
      23        4.27059        0.00000
      24        4.57359        0.00000
      25        4.57359        0.00000
      26        4.84177        0.00000
      27        6.19626        0.00000
      28        6.22225        0.00000

 3/84 kpoint (Cartesian) = 0.833333 0.00000 0.00000 (13261 pws)
       1       -4.19322     0.00694444
       2       -2.39715     0.00694444
       3       -1.78842     0.00694444
       4       -1.78842     0.00694444
       5       -1.10329     0.00694444
       6       -1.10329     0.00694444
       7      -0.497937     0.00694444
       8       0.509659     0.00694425
       9       0.509665     0.00694425
      10       0.653397     0.00679091
      11       0.653397     0.00679091
      12        1.16838    6.15911e-10
      13        1.16838    6.15911e-10
      14        1.71504        0.00000
      15        2.36863        0.00000
      16        2.36925        0.00000
      17        2.36926        0.00000
      18        2.88683        0.00000
      19        2.88683        0.00000
      20        2.94249        0.00000
      21        2.94249        0.00000
      22        2.97000        0.00000
      23        4.02868        0.00000
      24        4.98761        0.00000
      25        4.98761        0.00000
      26        5.13891        0.00000
      27        5.54469        0.00000
      28        6.55479        0.00000

 4/84 kpoint (Cartesian) = 0.750000 0.00000 0.00000 (13233 pws)
       1       -4.09746     0.00694444
       2       -2.73974     0.00694444
       3       -1.73014     0.00694444
       4       -1.73013     0.00694444
       5       -1.00748     0.00694444
       6       -1.00748     0.00694444
       7    -0.00635550     0.00694444
       8       0.197480     0.00694444
       9       0.197488     0.00694444
      10       0.332865     0.00694444
      11       0.332865     0.00694444
      12        1.26422    1.77373e-13
      13        1.26422    1.77373e-13
      14        1.85325        0.00000
      15        2.46234        0.00000
      16        2.61239        0.00000
      17        2.61239        0.00000
      18        2.61652        0.00000
      19        2.90823        0.00000
      20        2.90824        0.00000
      21        3.40122        0.00000
      22        3.40122        0.00000
      23        3.74311        0.00000
      24        4.62259        0.00000
      25        5.47365        0.00000
      26        5.47365        0.00000
      27        5.80695        0.00000
      28        7.03467        0.00000

 5/84 kpoint (Cartesian) = 0.666667 0.00000 0.00000 (13229 pws)
       1       -3.96360     0.00694444
       2       -3.05488     0.00694444
       3       -1.66236     0.00694444
       4       -1.66235     0.00694444
       5      -0.873654     0.00694444
       6      -0.873654     0.00694444
       7     -0.0550335     0.00694444
       8     -0.0550235     0.00694444
       9      0.0274200     0.00694444
      10      0.0274200     0.00694444
      11       0.501432     0.00694433
      12        1.39811        0.00000
      13        1.39811        0.00000
      14        2.06190        0.00000
      15        2.25145        0.00000
      16        2.30270        0.00000
      17        2.30270        0.00000
      18        2.59297        0.00000
      19        3.45936        0.00000
      20        3.48879        0.00000
      21        3.48879        0.00000
      22        3.93193        0.00000
      23        3.97782        0.00000
      24        3.97782        0.00000
      25        5.98487        0.00000
      26        5.98487        0.00000
      27        6.27641        0.00000
      28        6.27642        0.00000

 6/84 kpoint (Cartesian) = 0.583333 0.00000 0.00000 (13230 pws)
       1       -3.79188     0.00694444
       2       -3.33663     0.00694444
       3       -1.60400     0.00694444
       4       -1.60399     0.00694444
       5      -0.702227     0.00694444
       6      -0.702227     0.00694444
       7      -0.249880     0.00694444
       8      -0.249880     0.00694444
       9      -0.225092     0.00694444
      10      -0.225080     0.00694444
      11       0.998748    1.57194e-05
      12        1.56973        0.00000
      13        1.56973        0.00000
      14        1.87168        0.00000
      15        2.02343        0.00000
      16        2.02343        0.00000
      17        2.36074        0.00000
      18        2.75978        0.00000
      19        3.19608        0.00000
      20        3.30322        0.00000
      21        4.09550        0.00000
      22        4.09551        0.00000
      23        4.60328        0.00000
      24        4.60328        0.00000
      25        5.56103        0.00000
      26        5.56104        0.00000
      27        5.98087        0.00000
      28        5.98087        0.00000

 7/84 kpoint (Cartesian) = 0.00000 0.00000 0.500000 (13190 pws)
       1       -3.58269     0.00347222
       2       -3.58267     0.00347222
       3       -1.58008     0.00347222
       4       -1.58006     0.00347222
       5      -0.493896     0.00347222
       6      -0.493896     0.00347222
       7      -0.493881     0.00347222
       8      -0.493881     0.00347222
       9      -0.286357     0.00347222
      10      -0.286345     0.00347222
      11        1.45885        0.00000
      12        1.45886        0.00000
      13        1.77849        0.00000
      14        1.77849        0.00000
      15        1.77850        0.00000
      16        1.77850        0.00000
      17        2.77253        0.00000
      18        2.77253        0.00000
      19        2.96153        0.00000
      20        2.96155        0.00000
      21        4.55295        0.00000
      22        4.55295        0.00000
      23        5.06716        0.00000
      24        5.06716        0.00000
      25        5.27200        0.00000
      26        5.27200        0.00000
      27        5.27200        0.00000
      28        5.27200        0.00000

 8/84 kpoint (Cartesian) = 0.916667 0.916667 0.00000 (13219 pws)
       1       -4.23155      0.0138889
       2       -2.03424      0.0138889
       3       -2.03423      0.0138889
       4       -1.81417      0.0138889
       5       -1.14166      0.0138889
       6      -0.922823      0.0138889
       7      -0.922823      0.0138889
       8       0.534824      0.0138873
       9       0.878269     0.00174686
      10       0.878271     0.00174677
      11       0.967798    0.000112571
      12       0.967799    0.000112566
      13        1.12971    2.00797e-08
      14        1.88221        0.00000
      15        1.91347        0.00000
      16        1.91347        0.00000
      17        2.49405        0.00000
      18        2.49405        0.00000
      19        2.70619        0.00000
      20        2.93185        0.00000
      21        3.10118        0.00000
      22        3.44502        0.00000
      23        4.41413        0.00000
      24        4.51649        0.00000
      25        4.52588        0.00000
      26        5.10367        0.00000
      27        6.12614        0.00000
      28        6.33625        0.00000

 9/84 kpoint (Cartesian) = 0.916667 0.833333 0.00000 (13243 pws)
       1       -4.17407      0.0277778
       2       -2.38015      0.0277778
       3       -1.98898      0.0277778
       4       -1.77852      0.0277778
       5       -1.08409      0.0277778
       6      -0.876686      0.0277778
       7      -0.488093      0.0277778
       8       0.179881      0.0277778
       9       0.538720      0.0277737
      10       0.672567      0.0266476
      11       0.949071    0.000448134
      12       0.987912    0.000100234
      13        1.02531    1.83061e-05
      14        1.98378        0.00000
      15        2.17961        0.00000
      16        2.39067        0.00000
      17        2.55045        0.00000
      18        2.56747        0.00000
      19        2.79178        0.00000
      20        2.90563        0.00000
      21        3.15780        0.00000
      22        3.31001        0.00000
      23        4.21096        0.00000
      24        4.74644        0.00000
      25        4.88621        0.00000
      26        5.34322        0.00000
      27        5.66080        0.00000
      28        6.40380        0.00000

 10/84 kpoint (Cartesian) = 0.916667 0.750000 0.00000 (13246 pws)
       1       -4.07836      0.0277778
       2       -2.72192      0.0277778
       3       -1.91720      0.0277778
       4       -1.72624      0.0277778
       5      -0.988277      0.0277778
       6      -0.805992      0.0277778
       7      -0.134607      0.0277778
       8    -0.00878716      0.0277778
       9       0.238812      0.0277778
      10       0.352033      0.0277778
      11       0.704350      0.0250714
      12        1.07330    1.41483e-06
      13        1.12104    7.21769e-08
      14        2.10473        0.00000
      15        2.21418        0.00000
      16        2.46510        0.00000
      17        2.64420        0.00000
      18        2.67306        0.00000
      19        2.92862        0.00000
      20        3.01214        0.00000
      21        3.41996        0.00000
      22        3.68881        0.00000
      23        3.92592        0.00000
      24        4.65533        0.00000
      25        5.19503        0.00000
      26        5.37461        0.00000
      27        6.06327        0.00000
      28        6.57239        0.00000

 11/84 kpoint (Cartesian) = 0.916667 0.666667 0.00000 (13223 pws)
       1       -3.94456      0.0277778
       2       -3.03658      0.0277778
       3       -1.82631      0.0277778
       4       -1.67161      0.0277778
       5      -0.854459      0.0277778
       6      -0.726390      0.0277778
       7      -0.388468      0.0277778
       8      0.0176347      0.0277778
       9      0.0465942      0.0277778
      10       0.421281      0.0277778
      11       0.469091      0.0277777
      12        1.25478    1.71350e-12
      13        1.26534    6.38204e-13
      14        1.88124        0.00000
      15        2.15716        0.00000
      16        2.28414        0.00000
      17        2.66991        0.00000
      18        2.77489        0.00000
      19        3.23996        0.00000
      20        3.50809        0.00000
      21        3.64191        0.00000
      22        3.98064        0.00000
      23        3.99645        0.00000
      24        4.27048        0.00000
      25        5.66842        0.00000
      26        5.89768        0.00000
      27        6.00411        0.00000
      28        6.29149        0.00000

 12/84 kpoint (Cartesian) = 0.916667 0.583333 0.00000 (13207 pws)
       1       -3.77294      0.0277778
       2       -3.31803      0.0277778
       3       -1.73159      0.0277778
       4       -1.64023      0.0277778
       5      -0.683038      0.0277778
       6      -0.669701      0.0277778
       7      -0.559952      0.0277778
       8      -0.230700      0.0277778
       9     -0.0741651      0.0277778
      10       0.175295      0.0277778
      11       0.897687     0.00216389
      12        1.42614        0.00000
      13        1.54916        0.00000
      14        1.56591        0.00000
      15        1.87887        0.00000
      16        2.30450        0.00000
      17        2.53832        0.00000
      18        2.94179        0.00000
      19        3.37840        0.00000
      20        3.37932        0.00000
      21        3.84908        0.00000
      22        4.11070        0.00000
      23        4.62174        0.00000
      24        4.88357        0.00000
      25        5.28830        0.00000
      26        5.58526        0.00000
      27        5.99870        0.00000
      28        6.13243        0.00000

 13/84 kpoint (Cartesian) = 0.916667 0.500000 0.00000 (13222 pws)
       1       -3.56388      0.0138889
       2       -3.56387      0.0138889
       3       -1.66007      0.0138889
       4       -1.66006      0.0138889
       5      -0.638676      0.0138889
       6      -0.638662      0.0138889
       7      -0.474713      0.0138889
       8      -0.474697      0.0138889
       9    -0.00627168      0.0138889
      10    -0.00625821      0.0138889
      11        1.25138    1.17203e-12
      12        1.25138    1.17111e-12
      13        1.63452        0.00000
      14        1.63454        0.00000
      15        1.91758        0.00000
      16        1.91759        0.00000
      17        2.89516        0.00000
      18        2.89517        0.00000
      19        3.14367        0.00000
      20        3.14369        0.00000
      21        4.41986        0.00000
      22        4.41987        0.00000
      23        4.92755        0.00000
      24        4.92755        0.00000
      25        5.29022        0.00000
      26        5.29022        0.00000
      27        5.60223        0.00000
      28        5.60223        0.00000

 14/84 kpoint (Cartesian) = 0.833333 0.833333 0.00000 (13219 pws)
       1       -4.11666      0.0138889
       2       -2.32965      0.0138889
       3       -2.32964      0.0138889
       4       -1.75224      0.0138889
       5       -1.02652      0.0138889
       6      -0.464380      0.0138889
       7      -0.464380      0.0138889
       8      -0.172245      0.0138889
       9       0.631750      0.0137462
      10       0.631752      0.0137461
      11       0.730036      0.0114617
      12       0.730037      0.0114617
      13        1.24379    2.33962e-12
      14        2.06183        0.00000
      15        2.18835        0.00000
      16        2.45535        0.00000
      17        2.45536        0.00000
      18        2.48934        0.00000
      19        2.96196        0.00000
      20        2.96196        0.00000
      21        3.48855        0.00000
      22        3.63309        0.00000
      23        4.53214        0.00000
      24        4.63482        0.00000
      25        4.73034        0.00000
      26        5.38842        0.00000
      27        5.57550        0.00000
      28        6.25118        0.00000

 15/84 kpoint (Cartesian) = 0.833333 0.750000 0.00000 (13237 pws)
       1       -4.02108      0.0277778
       2       -2.66872      0.0277778
       3       -2.24729      0.0277778
       4       -1.72195      0.0277778
       5      -0.930720      0.0277778
       6      -0.465097      0.0277778
       7      -0.450001      0.0277778
       8     -0.0328983      0.0277778
       9       0.379729      0.0277778
      10       0.409500      0.0277778
      11       0.811463      0.0115981
      12       0.825686     0.00948991
      13        1.13897    2.11267e-08
      14        1.83234        0.00000
      15        2.16601        0.00000
      16        2.36697        0.00000
      17        2.56489        0.00000
      18        2.98996        0.00000
      19        3.05559        0.00000
      20        3.34951        0.00000
      21        3.47609        0.00000
      22        4.17319        0.00000
      23        4.32790        0.00000
      24        4.75565        0.00000
      25        4.86817        0.00000
      26        5.14627        0.00000
      27        5.68311        0.00000
      28        6.38151        0.00000

 16/84 kpoint (Cartesian) = 0.833333 0.666667 0.00000 (13211 pws)
       1       -3.88748      0.0277778
       2       -2.98183      0.0277778
       3       -2.13676      0.0277778
       4       -1.71404      0.0277778
       5      -0.796912      0.0277778
       6      -0.668283      0.0277778
       7      -0.490965      0.0277778
       8       0.104076      0.0277778
       9       0.260173      0.0277778
      10       0.346629      0.0277778
      11       0.891844     0.00251574
      12       0.959287    0.000310231
      13        1.11994    7.77189e-08
      14        1.50398        0.00000
      15        1.85972        0.00000
      16        2.72286        0.00000
      17        2.88987        0.00000
      18        3.01643        0.00000
      19        3.18608        0.00000
      20        3.56582        0.00000
      21        4.04953        0.00000
      22        4.05224        0.00000
      23        4.13857        0.00000
      24        4.75653        0.00000
      25        5.21002        0.00000
      26        5.62193        0.00000
      27        5.68393        0.00000
      28        5.95102        0.00000

 17/84 kpoint (Cartesian) = 0.833333 0.583333 0.00000 (13197 pws)
       1       -3.71615      0.0277778
       2       -3.26231      0.0277778
       3       -2.00579      0.0277778
       4       -1.76242      0.0277778
       5      -0.748791      0.0277778
       6      -0.625504      0.0277778
       7      -0.598893      0.0277778
       8      -0.173200      0.0277778
       9       0.296295      0.0277778
      10       0.646752      0.0272881
      11       0.651409      0.0272034
      12        1.13045    3.81712e-08
      13        1.20305    1.58191e-10
      14        1.56349        0.00000
      15        1.58233        0.00000
      16        2.58047        0.00000
      17        2.93711        0.00000
      18        3.35266        0.00000
      19        3.48844        0.00000
      20        3.61634        0.00000
      21        3.78786        0.00000
      22        4.15133        0.00000
      23        4.67701        0.00000
      24        4.92387        0.00000
      25        5.32424        0.00000
      26        5.54740        0.00000
      27        5.67875        0.00000
      28        6.05185        0.00000

 18/84 kpoint (Cartesian) = 0.833333 0.500000 0.00000 (13198 pws)
       1       -3.50753      0.0138889
       2       -3.50751      0.0138889
       3       -1.87076      0.0138889
       4       -1.87075      0.0138889
       5      -0.708897      0.0138889
       6      -0.708883      0.0138889
       7      -0.417195      0.0138889
       8      -0.417179      0.0138889
       9       0.439789      0.0138889
      10       0.439803      0.0138889
      11       0.924205    0.000508059
      12       0.924216    0.000507895
      13        1.33851    1.88892e-16
      14        1.33852    1.88121e-16
      15        2.07612        0.00000
      16        2.07613        0.00000
      17        3.22464        0.00000
      18        3.22465        0.00000
      19        3.55403        0.00000
      20        3.55404        0.00000
      21        4.11073        0.00000
      22        4.11073        0.00000
      23        4.91973        0.00000
      24        4.91973        0.00000
      25        5.34468        0.00000
      26        5.34468        0.00000
      27        5.84592        0.00000
      28        5.84593        0.00000

 19/84 kpoint (Cartesian) = 0.750000 0.750000 0.00000 (13207 pws)
       1       -3.92572      0.0138889
       2       -2.58104      0.0138889
       3       -2.58104      0.0138889
       4       -1.74217      0.0138889
       5      -0.834928      0.0138889
       6      -0.705517      0.0138889
       7      -0.125169      0.0138889
       8      -0.125163      0.0138889
       9       0.505143      0.0138886
      10       0.505144      0.0138886
      11       0.665062      0.0134404
      12       0.665066      0.0134404
      13        1.43306        0.00000
      14        1.47747        0.00000
      15        1.84419        0.00000
      16        2.26643        0.00000
      17        3.09287        0.00000
      18        3.09287        0.00000
      19        3.47763        0.00000
      20        3.56935        0.00000
      21        3.56935        0.00000
      22        4.67365        0.00000
      23        4.71638        0.00000
      24        4.72880        0.00000
      25        4.85706        0.00000
      26        4.96851        0.00000
      27        5.16848        0.00000
      28        6.01648        0.00000

 20/84 kpoint (Cartesian) = 0.750000 0.666667 0.00000 (13212 pws)
       1       -3.79249      0.0277778
       2       -2.89116      0.0277778
       3       -2.46079      0.0277778
       4       -1.82266      0.0277778
       5      -0.816478      0.0277778
       6      -0.701138      0.0277778
       7      -0.298222      0.0277778
       8       0.130292      0.0277778
       9       0.199742      0.0277778
      10       0.638728      0.0274090
      11       0.669164      0.0267588
      12        1.10259    2.39891e-07
      13        1.15314    7.65594e-09
      14        1.36558    1.85037e-17
      15        1.53859        0.00000
      16        2.60322        0.00000
      17        3.23878        0.00000
      18        3.25045        0.00000
      19        3.66140        0.00000
      20        3.69923        0.00000
      21        4.14486        0.00000
      22        4.40101        0.00000
      23        4.54880        0.00000
      24        4.73488        0.00000
      25        5.26453        0.00000
      26        5.29707        0.00000
      27        5.42457        0.00000
      28        5.43357        0.00000

 21/84 kpoint (Cartesian) = 0.750000 0.583333 0.00000 (13210 pws)
       1       -3.62169      0.0277778
       2       -3.16982      0.0277778
       3       -2.31176      0.0277778
       4       -1.96792      0.0277778
       5      -0.793118      0.0277778
       6      -0.529750      0.0277778
       7      -0.497357      0.0277778
       8     -0.0775037      0.0277778
       9       0.359086      0.0277778
      10       0.777262      0.0168682
      11       0.809854      0.0118437
      12       0.860279     0.00515796
      13        1.15554    6.42437e-09
      14        1.26151    9.14885e-13
      15        1.63532        0.00000
      16        2.77647        0.00000
      17        3.15939        0.00000
      18        3.43074        0.00000
      19        3.86485        0.00000
      20        3.99026        0.00000
      21        4.18449        0.00000
      22        4.29538        0.00000
      23        4.63051        0.00000
      24        4.76863        0.00000
      25        4.90390        0.00000
      26        5.38753        0.00000
      27        5.61511        0.00000
      28        5.93762        0.00000

 22/84 kpoint (Cartesian) = 0.750000 0.500000 0.00000 (13214 pws)
       1       -3.41385      0.0138889
       2       -3.41384      0.0138889
       3       -2.14185      0.0138889
       4       -2.14183      0.0138889
       5      -0.673681      0.0138889
       6      -0.673668      0.0138889
       7      -0.321468      0.0138889
       8      -0.321453      0.0138889
       9       0.597409      0.0138532
      10       0.597421      0.0138532
      11       0.947504    0.000236683
      12       0.947518    0.000236572
      13        1.01784    1.31228e-05
      14        1.01785    1.31134e-05
      15        2.20984        0.00000
      16        2.20985        0.00000
      17        3.67581        0.00000
      18        3.67582        0.00000
      19        3.78345        0.00000
      20        3.78345        0.00000
      21        4.06460        0.00000
      22        4.06462        0.00000
      23        4.99270        0.00000
      24        4.99270        0.00000
      25        5.12680        0.00000
      26        5.12681        0.00000
      27        5.43467        0.00000
      28        5.43467        0.00000

 23/84 kpoint (Cartesian) = 0.666667 0.666667 0.00000 (13209 pws)
       1       -3.65982      0.0138889
       2       -2.76566      0.0138889
       3       -2.76566      0.0138889
       4       -2.00162      0.0138889
       5      -0.824962      0.0138889
       6      -0.567372      0.0138889
       7      -0.120633      0.0138889
       8      -0.120625      0.0138889
       9       0.333355      0.0138889
      10       0.333356      0.0138889
      11       0.833360     0.00420832
      12        1.18137    4.52466e-10
      13        1.18138    4.52257e-10
      14        1.23322    6.01564e-12
[...]
      18        3.40212        0.00000
      19        3.63705        0.00000
      20        3.63705        0.00000
      21        4.14307        0.00000
      22        4.14307        0.00000
      23        4.47496        0.00000
      24        4.47497        0.00000
      25        4.95697        0.00000
      26        4.95697        0.00000
      27        5.81770        0.00000
      28        5.81772        0.00000

 72/84 kpoint (Cartesian) = 0.750000 0.583333 0.583333 (13209 pws)
       1       -3.15838      0.0277778
       2       -2.73193      0.0277778
       3       -2.73192      0.0277778
       4       -2.38660      0.0277778
       5       -1.49989      0.0277778
       6       -1.15365      0.0277778
       7       -1.15364      0.0277778
       8      -0.723824      0.0277778
       9        1.08294    8.03193e-07
      10        1.47260        0.00000
      11        1.47260        0.00000
      12        1.94987        0.00000
      13        2.07018        0.00000
      14        2.07019        0.00000
      15        2.18515        0.00000
      16        2.89216        0.00000
      17        3.06070        0.00000
      18        3.62364        0.00000
      19        3.62364        0.00000
      20        3.88074        0.00000
      21        4.02946        0.00000
      22        4.10013        0.00000
      23        4.10014        0.00000
      24        4.36658        0.00000
      25        4.74814        0.00000
      26        5.20220        0.00000
      27        5.34185        0.00000
      28        5.34185        0.00000

 73/84 kpoint (Cartesian) = 0.750000 0.583333 0.500000 (13194 pws)
       1       -2.95972      0.0277778
       2       -2.95970      0.0277778
       3       -2.55821      0.0277778
       4       -2.55820      0.0277778
       5       -1.36484      0.0277778
       6       -1.36483      0.0277778
       7      -0.961399      0.0277778
       8      -0.961385      0.0277778
       9        1.27513    2.50602e-13
      10        1.27514    2.50269e-13
      11        1.70999        0.00000
      12        1.71000        0.00000
      13        2.19463        0.00000
      14        2.19464        0.00000
      15        2.56874        0.00000
      16        2.56875        0.00000
      17        3.44218        0.00000
      18        3.44218        0.00000
      19        3.77440        0.00000
      20        3.77441        0.00000
      21        3.96759        0.00000
      22        3.96761        0.00000
      23        4.26551        0.00000
      24        4.26551        0.00000
      25        4.78322        0.00000
      26        4.78322        0.00000
      27        5.20792        0.00000
      28        5.20793        0.00000

 74/84 kpoint (Cartesian) = 0.750000 0.500000 0.500000 (13204 pws)
       1       -2.76916     0.00694444
       2       -2.76914     0.00694444
       3       -2.76914     0.00694444
       4       -2.76913     0.00694444
       5       -1.19014     0.00694444
       6       -1.19013     0.00694444
       7       -1.19013     0.00694444
       8       -1.19011     0.00694444
       9        1.48535        0.00000
      10        1.48536        0.00000
      11        1.48536        0.00000
      12        1.48537        0.00000
      13        2.55340        0.00000
      14        2.55340        0.00000
      15        2.55341        0.00000
      16        2.55342        0.00000
      17        3.45424        0.00000
      18        3.45425        0.00000
      19        3.45425        0.00000
      20        3.45425        0.00000
      21        4.29797        0.00000
      22        4.29799        0.00000
      23        4.29799        0.00000
      24        4.29799        0.00000
      25        4.73626        0.00000
      26        4.73627        0.00000
      27        4.73627        0.00000
      28        4.73628        0.00000

 75/84 kpoint (Cartesian) = 0.666667 0.666667 0.666667 (13184 pws)
       1       -3.36146     0.00925926
       2       -2.52089     0.00925926
       3       -2.52088     0.00925926
       4       -2.52088     0.00925926
       5       -1.32884     0.00925926
       6       -1.32884     0.00925926
       7       -1.32883     0.00925926
       8      -0.480886     0.00925926
       9        1.29920    7.75666e-15
      10        1.29921    7.74946e-15
      11        1.29921    7.74946e-15
      12        1.98900        0.00000
      13        1.98900        0.00000
      14        1.98900        0.00000
      15        2.78694        0.00000
      16        2.78694        0.00000
      17        2.88361        0.00000
      18        2.88361        0.00000
      19        2.88362        0.00000
      20        3.85666        0.00000
      21        4.17220        0.00000
      22        4.17220        0.00000
      23        4.98853        0.00000
      24        4.98853        0.00000
      25        4.98853        0.00000
      26        5.23177        0.00000
      27        5.32667        0.00000
      28        5.32668        0.00000

 76/84 kpoint (Cartesian) = 0.666667 0.666667 0.583333 (13201 pws)
       1       -3.19595      0.0277778
       2       -2.76863      0.0277778
       3       -2.42167      0.0277778
       4       -2.42166      0.0277778
       5       -1.53888      0.0277778
       6       -1.53886      0.0277778
       7       -1.19083      0.0277778
       8      -0.759986      0.0277778
       9        1.43504        0.00000
      10        1.43505        0.00000
      11        1.84975        0.00000
      12        1.99156        0.00000
      13        1.99157        0.00000
      14        2.15025        0.00000
      15        2.55878        0.00000
      16        2.74170        0.00000
      17        3.09554        0.00000
      18        3.22643        0.00000
      19        3.22643        0.00000
      20        3.76085        0.00000
      21        4.05205        0.00000
      22        4.29264        0.00000
      23        4.44803        0.00000
      24        4.44803        0.00000
      25        4.71009        0.00000
      26        4.92544        0.00000
      27        5.27493        0.00000
      28        5.30493        0.00000

 77/84 kpoint (Cartesian) = 0.666667 0.666667 0.500000 (13188 pws)
       1       -2.99694      0.0138889
       2       -2.99693      0.0138889
       3       -2.37453      0.0138889
       4       -2.37452      0.0138889
       5       -1.62308      0.0138889
       6       -1.62307      0.0138889
       7      -0.998093      0.0138889
       8      -0.998079      0.0138889
       9        1.50590        0.00000
      10        1.50591        0.00000
      11        1.93284        0.00000
      12        1.93286        0.00000
      13        2.34223        0.00000
      14        2.34225        0.00000
      15        2.36276        0.00000
      16        2.36276        0.00000
      17        3.38281        0.00000
      18        3.38282        0.00000
      19        3.67791        0.00000
      20        3.67791        0.00000
      21        3.93029        0.00000
      22        3.93029        0.00000
      23        4.47601        0.00000
      24        4.47602        0.00000
      25        4.47738        0.00000
      26        4.47739        0.00000
      27        5.33974        0.00000
      28        5.33975        0.00000

 78/84 kpoint (Cartesian) = 0.666667 0.583333 0.583333 (13197 pws)
       1       -3.03447      0.0277778
       2       -2.63094      0.0277778
       3       -2.63093      0.0277778
       4       -2.41027      0.0277778
       5       -1.66160      0.0277778
       6       -1.44042      0.0277778
       7       -1.44041      0.0277778
       8       -1.03466      0.0277778
       9        1.62367        0.00000
      10        1.90417        0.00000
      11        1.90417        0.00000
      12        2.23503        0.00000
      13        2.23504        0.00000
      14        2.30275        0.00000
      15        2.43285        0.00000
      16        2.85800        0.00000
      17        3.20616        0.00000
      18        3.41045        0.00000
      19        3.41046        0.00000
      20        3.87838        0.00000
      21        3.90082        0.00000
      22        4.06028        0.00000
      23        4.17717        0.00000
      24        4.17717        0.00000
      25        4.44126        0.00000
      26        4.81217        0.00000
      27        4.86312        0.00000
      28        4.86312        0.00000

 79/84 kpoint (Cartesian) = 0.666667 0.583333 0.500000 (13200 pws)
       1       -2.84310      0.0277778
       2       -2.84309      0.0277778
       3       -2.49412      0.0277778
       4       -2.49411      0.0277778
       5       -1.61482      0.0277778
       6       -1.61481      0.0277778
       7       -1.26458      0.0277778
       8       -1.26457      0.0277778
       9        1.79428        0.00000
      10        1.79430        0.00000
      11        2.20668        0.00000
      12        2.20669        0.00000
      13        2.32216        0.00000
      14        2.32217        0.00000
      15        2.61897        0.00000
      16        2.61898        0.00000
      17        3.56016        0.00000
      18        3.56016        0.00000
      19        3.64320        0.00000
      20        3.64321        0.00000
      21        3.96929        0.00000
      22        3.96930        0.00000
      23        3.98069        0.00000
      24        3.98069        0.00000
      25        4.39405        0.00000
      26        4.39406        0.00000
      27        4.80274        0.00000
      28        4.80275        0.00000

 80/84 kpoint (Cartesian) = 0.666667 0.500000 0.500000 (13204 pws)
       1       -2.66787     0.00694444
       2       -2.66785     0.00694444
       3       -2.66785     0.00694444
       4       -2.66785     0.00694444
       5       -1.47788     0.00694444
       6       -1.47787     0.00694444
       7       -1.47787     0.00694444
       8       -1.47785     0.00694444
       9        2.01120        0.00000
      10        2.01121        0.00000
      11        2.01121        0.00000
      12        2.01123        0.00000
      13        2.63896        0.00000
      14        2.63896        0.00000
      15        2.63896        0.00000
      16        2.63897        0.00000
      17        3.57563        0.00000
      18        3.57564        0.00000
      19        3.57564        0.00000
      20        3.57564        0.00000
      21        4.02482        0.00000
      22        4.02483        0.00000
      23        4.02484        0.00000
      24        4.02484        0.00000
      25        4.35979        0.00000
      26        4.35979        0.00000
      27        4.35979        0.00000
      28        4.35980        0.00000

 81/84 kpoint (Cartesian) = 0.583333 0.583333 0.583333 (13205 pws)
       1       -2.88034     0.00925926
       2       -2.53033     0.00925926
       3       -2.53031     0.00925926
       4       -2.53031     0.00925926
       5       -1.65319     0.00925926
       6       -1.65319     0.00925926
       7       -1.65318     0.00925926
       8       -1.30183     0.00925926
       9        2.15905        0.00000
      10        2.15906        0.00000
      11        2.15906        0.00000
      12        2.44634        0.00000
      13        2.44634        0.00000
      14        2.44634        0.00000
      15        2.75476        0.00000
      16        2.75476        0.00000
      17        3.39662        0.00000
      18        3.39662        0.00000
      19        3.39663        0.00000
      20        3.81297        0.00000
      21        3.87028        0.00000
      22        3.87028        0.00000
      23        4.18245        0.00000
      24        4.18245        0.00000
      25        4.18245        0.00000
      26        4.40918        0.00000
      27        4.40919        0.00000
      28        4.40919        0.00000

 82/84 kpoint (Cartesian) = 0.583333 0.500000 0.583333 (13184 pws)
       1       -2.70467      0.0138889
       2       -2.70466      0.0138889
       3       -2.48227      0.0138889
       4       -2.48226      0.0138889
       5       -1.73872      0.0138889
       6       -1.73871      0.0138889
       7       -1.51571      0.0138889
       8       -1.51569      0.0138889
       9        2.24812        0.00000
      10        2.24813        0.00000
      11        2.50696        0.00000
      12        2.50696        0.00000
      13        2.60480        0.00000
      14        2.60481        0.00000
      15        2.61445        0.00000
      16        2.61446        0.00000
      17        3.63099        0.00000
      18        3.63100        0.00000
      19        3.66216        0.00000
      20        3.66217        0.00000
      21        3.81380        0.00000
      22        3.81380        0.00000
      23        3.98423        0.00000
      24        3.98424        0.00000
      25        4.01036        0.00000
      26        4.01036        0.00000
      27        4.37037        0.00000
      28        4.37039        0.00000

 83/84 kpoint (Cartesian) = 0.583333 0.500000 0.500000 (13220 pws)
       1       -2.56685     0.00694444
       2       -2.56683     0.00694444
       3       -2.56683     0.00694444
       4       -2.56683     0.00694444
       5       -1.69140     0.00694444
       6       -1.69140     0.00694444
       7       -1.69140     0.00694444
       8       -1.69137     0.00694444
       9        2.49850        0.00000
      10        2.49851        0.00000
      11        2.49851        0.00000
      12        2.49852        0.00000
      13        2.71768        0.00000
      14        2.71768        0.00000
      15        2.71768        0.00000
      16        2.71770        0.00000
      17        3.70310        0.00000
      18        3.70311        0.00000
      19        3.70311        0.00000
      20        3.70311        0.00000
      21        3.83262        0.00000
      22        3.83263        0.00000
      23        3.83264        0.00000
      24        3.83264        0.00000
      25        4.00033        0.00000
      26        4.00034        0.00000
      27        4.00034        0.00000
      28        4.00035        0.00000

 84/84 kpoint (Cartesian) = 0.500000 0.500000 0.500000 (13264 pws)
       1       -2.51853     0.00115741
       2       -2.51850     0.00115741
       3       -2.51850     0.00115741
       4       -2.51850     0.00115741
       5       -1.77731     0.00115741
       6       -1.77731     0.00115741
       7       -1.77731     0.00115741
       8       -1.77728     0.00115741
       9        2.75199        0.00000
      10        2.75199        0.00000
      11        2.75199        0.00000
      12        2.75200        0.00000
      13        2.75200        0.00000
      14        2.75200        0.00000
      15        2.75201        0.00000
      16        2.75201        0.00000
      17        3.76036        0.00000
      18        3.76036        0.00000
      19        3.76038        0.00000
      20        3.76038        0.00000
      21        3.76038        0.00000
      22        3.76039        0.00000
      23        3.76039        0.00000
      24        3.76039        0.00000
      25        3.80428        0.00000
      26        3.80430        0.00000
      27        3.80430        0.00000
      28        3.80430        0.00000



 --------------------------------------------
 !FINAL_ETOT_IS -189.0873919109434 eV
 --------------------------------------------






  |CLASS_NAME---------|NAME---------------|TIME(Sec)-----|CALLS----|AVG------|PER%-------
                                      total         4923.5        17   2.9e+02   1.0e+02%
                 Driver         driver_line         4923.4         1   4.9e+03    1.e+02%
               PW_Basis      setuptransform        0.89232         1      0.89     0.018%
             PW_Basis_K      setuptransform        0.20239         1      0.20    0.0041%
               PW_Basis  setup_struc_factor         1.0077         1       1.0     0.020%
              ppcell_vl           init_vloc        0.13104         1      0.13    0.0027%
          ESolver_KS_PW                 Run         4920.9         1   4.9e+03    1.e+02%
                 Charge          atomic_rho        0.18117         1      0.18    0.0037%
               PW_Basis          recip2real         1.6278        62     0.026     0.033%
               PW_Basis    gathers_scatterp        0.26990        62    0.0044    0.0055%
              Potential            init_pot        0.95765         1      0.96     0.019%
              Potential  update_from_charge         6.7293        10      0.67      0.14%
              Potential           cal_v_eff         6.6854        10      0.67      0.14%
           H_Hartree_pw           v_hartree        0.63702        10     0.064     0.013%
               PW_Basis          real2recip         2.3213        98     0.024     0.047%
               PW_Basis    gatherp_scatters        0.26927        98    0.0027    0.0055%
                  PotXC           cal_v_eff         6.0038        10      0.60      0.12%
          XC_Functional                v_xc         3223.4         5   6.4e+02       65.%
          XC_Functional          v_xc_libxc         5.9520        10      0.60      0.12%
               Symmetry        rho_symmetry        0.44555        10     0.045    0.0090%
              HSolverPW               solve         4912.0         9   5.5e+02    1.e+02%
              WF_atomic          atomic_wfc        0.96705        84     0.012     0.020%
                 WF_igk              get_sk        0.84998      1344   0.00063     0.017%
        DiagoIterAssist      diagH_subspace         800.89       756       1.1       16.%
             OperatorPW                hPsi         4070.6     89830     0.045       83.%
               Operator          EkineticPW         19.640     89830   0.00022      0.40%
               Operator              VeffPW         4044.6     89830     0.045       82.%
             PW_Basis_K          recip2real         2066.6    118996     0.017       42.%
             PW_Basis_K    gathers_scatterp         298.60    118996    0.0025       6.1%
             PW_Basis_K          real2recip         1752.3    110242     0.016       36.%
             PW_Basis_K    gatherp_scatters         97.398    110242   0.00088       2.0%
               Operator          NonlocalPW        0.27253     89830   3.0e-06    0.0055%
        DiagoIterAssist     LAPACK_subspace        0.53375       756   0.00071     0.011%
                DiagoCG           diag_once         3931.8       756       5.2       80.%
            ElecStatePW            psiToRho         168.45         9       19.       3.4%
                 Charge             mix_rho        0.90808         8      0.11     0.018%
 ----------------------------------------------------------------------------------------

 CLASS_NAME---------|NAME---------------|MEMORY(MB)--------
                                         529.7
             wavefunc                 psi          476.0
        Charge_Mixing                Rrho          13.18
        Charge_Mixing               dRrho          11.54
        Charge_Mixing                drho          11.54
             PW_Basis           struc_fac          3.228
               Charge                 rho          1.648
               Charge            rho_save          1.648
               Charge            rho_core          1.648
            Potential   v_effective_fixed          1.648
            Potential              vr_eff          1.648
        Charge_Mixing           rho_save2          1.648
 ----------------------------------------------------------

 Start  Time  : Mon Mar  6 13:58:28 2023
 Finish Time  : Mon Mar  6 15:20:31 2023
 Total  Time  : 1 h 22 mins 3 secs 
