 *********************************************************
 *                                                       *
 *                  WELCOME TO ABACUS                    *
 *                                                       *
 *            'Atomic-orbital Based Ab-initio            *
 *                  Computation at UStc'                 *
 *                                                       *
 *          Website: http://abacus.ustc.edu.cn/          *
 *                                                       *
 *********************************************************
 Thu Jul  7 16:17:16 2022
 MAKE THE DIR         : OUT.ABACUS/
 UNIFORM GRID DIM     : 256 * 256 * 256
 UNIFORM GRID DIM(BIG): 256 * 256 * 256
 DONE(0.52126    SEC) : SETUP UNITCELL
 DONE(0.521989   SEC) : INIT K-POINTS
 ---------------------------------------------------------
 Self-consistent calculations for electrons
 ---------------------------------------------------------
 SPIN    KPOINTS         PROCESSORS  
 1       1               16          
 ---------------------------------------------------------
 Use plane wave basis
 ---------------------------------------------------------
 ELEMENT NATOM       XC          
 H       12          
 O       6           
 ---------------------------------------------------------
 Initial plane wave basis and FFT box
 ---------------------------------------------------------
 DONE(0.723433   SEC) : INIT PLANEWAVE
 DONE(1.43353    SEC) : INIT CHARGE
 MEMORY FOR PSI (MB)  : 35.0438
 DONE(2.02603    SEC) : LOCAL POTENTIAL
 DONE(2.04374    SEC) : NON-LOCAL POTENTIAL
 START POTENTIAL      : atomic
 DONE(4.37091    SEC) : INIT POTENTIAL
 DONE(12.397     SEC) : INIT BASIS
 -------------------------------------------
 SELF-CONSISTENT : 
 -------------------------------------------
 ITER   ETOT(eV)       EDIFF(eV)      DRHO       TIME(s)    
 CG1    -2.795423e+03  0.000000e+00   2.442e+00  7.497e+01  
 CG2    -2.803700e+03  -8.276452e+00  1.211e-01  2.408e+01  
 CG3    -2.803762e+03  -6.194394e-02  5.162e-02  3.131e+01  
 CG4    -2.803808e+03  -4.655958e-02  3.190e-03  2.193e+01  
 CG5    -2.803814e+03  -6.242541e-03  5.559e-04  3.601e+01  
 CG6    -2.803816e+03  -1.942270e-03  3.209e-05  3.349e+01  
 CG7    -2.803816e+03  -1.223281e-04  1.744e-06  4.147e+01  
 CG8    -2.803816e+03  -1.622335e-06  4.429e-07  4.866e+01  

  |CLASS_NAME---------|NAME---------------|TIME(Sec)-----|CALLS----|AVG------|PER%-------
                       total               324.43         17        19        1e+02     %
   Run_pw              plane_wave_line     324.38         1         3.2e+02   1e+02     %
   PW_Basis            setuptransform      0.17942        1         0.18      0.055     %
   PW_Basis            distributeg         0.14629        1         0.15      0.045     %
   mymath              heapsort            0.16524        3         0.055     0.051     %
   PW_Basis_K          setuptransform      0.10722        1         0.11      0.033     %
   PW_Basis_K          distributeg         0.10353        1         0.1       0.032     %
   PW_Basis            setup_struc_factor  0.5499         1         0.55      0.17      %
   ppcell_vnl          init                0.25777        1         0.26      0.079     %
   ppcell_vl           init_vloc           0.13121        1         0.13      0.04      %
   Potential           init_pot            2.3268         1         2.3       0.72      %
   Potential           set_local_pot       0.20151        1         0.2       0.062     %
   PW_Basis            recip2real          3.9727         47        0.085     1.2       %
   PW_Basis            gathers_scatterp    1.8971         47        0.04      0.58      %
   Charge              atomic_rho          0.48468        1         0.48      0.15      %
   Potential           v_of_rho            12.372         9         1.4       3.8       %
   XC_Functional       v_xc                10.441         9         1.2       3.2       %
   PW_Basis            real2recip          5.5519         70        0.079     1.7       %
   PW_Basis            gatherp_scatters    2.89           70        0.041     0.89      %
   H_Hartree_pw        v_hartree           1.8115         9         0.2       0.56      %
   wavefunc            wfcinit             8.0257         1         8         2.5       %
   pp_cell_vnl         getvnl              1.0859         9         0.12      0.33      %
   WF_igk              get_sk              0.50208        180       0.0028    0.15      %
   Hamilt_PW           diagH_subspace      3.3144         1         3.3       1         %
   Hamilt_PW           h_psi               237.23         1592      0.15      73        %
   Hamilt_PW           vloc                163.96         1592      0.1       51        %
   PW_Basis_K          recip2real          85.889         2048      0.042     26        %
   PW_Basis_K          gathers_scatterp    30.82          2048      0.015     9.5       %
   PW_Basis_K          real2recip          63.77          1856      0.034     20        %
   PW_Basis_K          gatherp_scatters    17.316         1856      0.0093    5.3       %
   Hamilt_PW           vnl                 72.101         1592      0.045     22        %
   Hamilt_PW           add_nonlocal_pp     35.916         1592      0.023     11        %
   Cell_PW             opt_cells_pw        312            1         3.1e+02   96        %
   Ions                opt_ions_pw         311.98         1         3.1e+02   96        %
   ESolver_KS_PW       Run                 311.98         1         3.1e+02   96        %
   HSolverPW           solve               297.77         8         37        92        %
   DiagoCG             diag                256.8          8         32        79        %
   ElecStatePW         psiToRho            17.495         8         2.2       5.4       %
   Charge              rho_mpi             8.3719         8         1         2.6       %
   Charge              mix_rho             1.6675         7         0.24      0.51      %
   DiagoIterAssist     diagH_subspace      22.469         7         3.2       6.9       %
 ----------------------------------------------------------------------------------------

 START  Time  : Thu Jul  7 16:17:16 2022
 FINISH Time  : Thu Jul  7 16:22:41 2022
 TOTAL  Time  : 3.2e+02
 SEE INFORMATION IN : OUT.ABACUS/
