 *********************************************************
 *                                                       *
 *                  WELCOME TO ABACUS v3.0               *
 *                                                       *
 *            'Atomic-orbital Based Ab-initio            *
 *                  Computation at UStc'                 *
 *                                                       *
 *          Website: http://abacus.ustc.edu.cn/          *
 *                                                       *
 *********************************************************
 Mon Apr 17 14:42:53 2023
 MAKE THE DIR         : OUT.blpstest/
Notice: symbol 'al_locpsp' is not an element symbol!!!! set the covalent radius to be 0.
 UNIFORM GRID DIM     : 27 * 27 * 27
 UNIFORM GRID DIM(BIG): 27 * 27 * 27
func,idXC_GGA_X_PBE 101
func,idXC_GGA_C_PBE 130
 DONE(0.113198   SEC) : SETUP UNITCELL
 DONE(0.171879   SEC) : SYMMETRY
 DONE(0.539195   SEC) : INIT K-POINTS
 ---------------------------------------------------------
 Self-consistent calculations for electrons
 ---------------------------------------------------------
 SPIN    KPOINTS         PROCESSORS  
 1       256             1           
 ---------------------------------------------------------
 Use plane wave basis
 ---------------------------------------------------------
 ELEMENT NATOM       XC          
 Al      1           
 ---------------------------------------------------------
 Initial plane wave basis and FFT box
 ---------------------------------------------------------
 DONE(0.540261   SEC) : INIT BASIS
 DONE(0.540294   SEC) : INIT PHI
 DONE(0.587133   SEC) : LOCAL POTENTIAL
 DONE(0.587175   SEC) : NON-LOCAL POTENTIAL
 START CHARGE      : atomic
 DONE(0.665113   SEC) : INIT POTENTIAL
 DONE(0.665177   SEC) : INIT OPTIMIZATION
 DONE(0.666103   SEC) : INIT KEDF
======================== Running OFDFT ========================
Iter        Etot(Ha)          Theta      PotNorm     deltaE(Ha)
0     -2.022731614183e+00   2.000e-01   1.932e-01   -2.023e+00  
1     -2.097100724575e+00   8.922e-02   9.919e-02   -7.437e-02  
2     -2.098425736557e+00   8.933e-03   7.993e-03   -1.325e-03  
3     -2.098440640304e+00   1.179e-03   4.307e-03   -1.490e-05  
4     -2.098445533811e+00   9.244e-04   2.044e-03   -4.894e-06  
5     -2.098446155438e+00   1.928e-04   4.470e-04   -6.216e-07  
6     -2.098446220818e+00   8.002e-05   3.686e-04   -6.538e-08  

  |CLASS_NAME---------|NAME---------------|TIME(Sec)-----|CALLS----|AVG------|PER%-------
                       total               13.02          21        0.62      1e+02     %
   Driver              driver_line         13.013         1         13        1e+02     %
   PW_Basis            recip2real          2.056          1394      0.0015    16        %
   PW_Basis            gathers_scatterp    0.18574        1394      0.00013   1.4       %
   Potential           update_from_charge  7.1209         155       0.046     55        %
   Potential           cal_v_eff           7.1191         155       0.046     55        %
   H_Hartree_pw        v_hartree           0.58543        155       0.0038    4.5       %
   PW_Basis            real2recip          2.8144         1702      0.0017    22        %
   PW_Basis            gatherp_scatters    0.19393        1702      0.00011   1.5       %
   PotXC               cal_v_eff           6.5147         155       0.042     50        %
   XC_Functional       v_xc                5.9738         78        0.077     46        %
   XC_Functional       v_xc_libxc          6.487          155       0.042     50        %
   ESolver_OF          Run                 12.352         1         12        95        %
   KEDF_TF             tf_potential        0.92636        154       0.006     7.1       %
   KEDF_WT             wt_potential        3.4954         154       0.023     27        %
   KEDF_vW             vw_potential        0.61613        154       0.004     4.7       %
 ----------------------------------------------------------------------------------------

 START  Time  : Mon Apr 17 14:42:53 2023
 FINISH Time  : Mon Apr 17 14:43:06 2023
 TOTAL  Time  : 13
 SEE INFORMATION IN : OUT.blpstest/
