 *********************************************************
 *                                                       *
 *                  WELCOME TO ABACUS v3.0               *
 *                                                       *
 *            'Atomic-orbital Based Ab-initio            *
 *                  Computation at UStc'                 *
 *                                                       *
 *          Website: http://abacus.ustc.edu.cn/          *
 *                                                       *
 *********************************************************
 Tue May  2 12:47:56 2023
 MAKE THE DIR         : OUT.blpstest/
Notice: symbol 'Li_locpsp' is not an element symbol!!!! set the covalent radius to be 0.
 UNIFORM GRID DIM     : 25 * 25 * 25
 UNIFORM GRID DIM(BIG): 25 * 25 * 25
func,idXC_GGA_X_PBE 101
func,idXC_GGA_C_PBE 130
 DONE(0.0756256  SEC) : SETUP UNITCELL
 DONE(0.128771   SEC) : SYMMETRY
 DONE(0.129      SEC) : INIT K-POINTS
 ---------------------------------------------------------
 Self-consistent calculations for electrons
 ---------------------------------------------------------
 SPIN    KPOINTS         PROCESSORS  
 1       1               1           
 ---------------------------------------------------------
 Use plane wave basis
 ---------------------------------------------------------
 ELEMENT NATOM       XC          
 Li      1           
 ---------------------------------------------------------
 Initial plane wave basis and FFT box
 ---------------------------------------------------------
 DONE(0.130042   SEC) : INIT BASIS
 DONE(0.130066   SEC) : INIT PHI
 DONE(0.164829   SEC) : LOCAL POTENTIAL
 DONE(0.164861   SEC) : NON-LOCAL POTENTIAL
 START CHARGE      : atomic
 DONE(0.221973   SEC) : INIT POTENTIAL
 DONE(0.222018   SEC) : INIT OPTIMIZATION
Default type: double
 DONE(0.222854   SEC) : INIT KEDF
======================== Running OFDFT ========================
Iter        Etot(Ha)          Theta      PotNorm     deltaE(Ha)
0     -2.592485892713e-01   2.000e-01   1.012e-01   -2.592e-01  
1     -2.741708584364e-01   9.098e-02   5.277e-02   -1.492e-02  
2     -2.746960617982e-01   9.340e-03   5.277e-03   -5.252e-04  
3     -2.747034481308e-01   1.445e-03   3.606e-03   -7.386e-06  
4     -2.747055166306e-01   6.698e-04   1.742e-03   -2.068e-06  
5     -2.747068060164e-01   9.049e-04   8.157e-04   -1.289e-06  
6     -2.747068915470e-01   1.340e-04   9.256e-05   -8.553e-08  
7     -2.747068934256e-01   1.620e-05   4.585e-05   -1.879e-09  

  |CLASS_NAME---------|NAME---------------|TIME(Sec)-----|CALLS----|AVG------|PER%-------
                       total               7.8963         21        0.38      1e+02     %
   Driver              driver_line         7.8852         1         7.9       1e+02     %
   PW_Basis            recip2real          1.4289         2127      0.00067   18        %
   PW_Basis            gathers_scatterp    0.14074        2127      6.6e-05   1.8       %
   Potential           update_from_charge  4.46           164       0.027     56        %
   Potential           cal_v_eff           4.4581         164       0.027     56        %
   H_Hartree_pw        v_hartree           0.33705        164       0.0021    4.3       %
   PW_Basis            real2recip          1.4166         2127      0.00067   18        %
   PW_Basis            gatherp_scatters    0.14604        2127      6.9e-05   1.8       %
   PotXC               cal_v_eff           4.0937         164       0.025     52        %
   XC_Functional       v_xc                3.8696         82        0.047     49        %
   XC_Functional       v_xc_libxc          4.0324         164       0.025     51        %
   ESolver_OF          Run                 7.6725         1         7.7       97        %
   KEDF_LKT            LKT_potential       2.7062         163       0.017     34        %
   KEDF_vW             vw_potential        0.29627        163       0.0018    3.8       %
 ----------------------------------------------------------------------------------------

 START  Time  : Tue May  2 12:47:56 2023
 FINISH Time  : Tue May  2 12:48:04 2023
 TOTAL  Time  : 8
 SEE INFORMATION IN : OUT.blpstest/
