 *********************************************************
 *                                                       *
 *                  WELCOME TO ABACUS v3.0               *
 *                                                       *
 *            'Atomic-orbital Based Ab-initio            *
 *                  Computation at UStc'                 *
 *                                                       *
 *          Website: http://abacus.ustc.edu.cn/          *
 *                                                       *
 *********************************************************
 Wed Dec 28 12:21:29 2022
 MAKE THE DIR         : OUT.blpstest/
Notice: symbol 'al_locpsp' is not an element symbol!!!! set the covalent radius to be 0.
 UNIFORM GRID DIM     : 25 * 25 * 25
 UNIFORM GRID DIM(BIG): 25 * 25 * 25
func,idXC_GGA_X_PBE 101
func,idXC_GGA_C_PBE 130
 DONE(0.115644   SEC) : SETUP UNITCELL
 DONE(0.182757   SEC) : SYMMETRY
 DONE(0.630604   SEC) : INIT K-POINTS
 ---------------------------------------------------------
 Self-consistent calculations for electrons
 ---------------------------------------------------------
 SPIN    KPOINTS         PROCESSORS  
 1       286             1           
 ---------------------------------------------------------
 Use plane wave basis
 ---------------------------------------------------------
 ELEMENT NATOM       XC          
 Al      1           
 ---------------------------------------------------------
 Initial plane wave basis and FFT box
 ---------------------------------------------------------
 DONE(0.733798   SEC) : INIT PLANEWAVE
 MEMORY FOR PSI (MB)  : 72.5299
 DONE(0.748491   SEC) : LOCAL POTENTIAL
 DONE(0.748571   SEC) : NON-LOCAL POTENTIAL
 DONE(0.748704   SEC) : INIT BASIS
 START CHARGE      : atomic
 DONE(0.788369   SEC) : INIT SCF
 ITER   ETOT(eV)       EDIFF(eV)      DRHO       TIME(s)    
 CG1    -5.655882e+01  0.000000e+00   7.100e-02  2.504e+01  
 CG2    -5.685552e+01  -2.967045e-01  6.865e-03  6.250e+00  
 CG3    -5.685959e+01  -4.072086e-03  7.336e-06  7.652e+00  
 CG4    -5.685981e+01  -2.203401e-04  2.140e-06  1.249e+01  
 CG5    -5.685983e+01  -1.791930e-05  2.346e-07  6.145e+00  
 CG6    -5.685983e+01  -4.033841e-07  5.187e-10  7.163e+00  

  |CLASS_NAME---------|NAME---------------|TIME(Sec)-----|CALLS----|AVG------|PER%-------
                       total               65.553         17        3.9       1e+02     %
   Driver              driver_line         65.533         1         66        1e+02     %
   ESolver_KS_PW       Run                 64.787         1         65        99        %
   XC_Functional       v_xc                38.846         4         9.7       59        %
   HSolverPW           solve               64.66          6         11        99        %
   DiagoIterAssist     diagH_subspace      11.126         1716      0.0065    17        %
   OperatorPW          hPsi                58.453         103395    0.00057   89        %
   Operator            EkineticPW          0.28355        103395    2.7e-06   0.43      %
   Operator            VeffPW              57.949         103395    0.00056   88        %
   PW_Basis_K          recip2real          29.457         130126    0.00023   45        %
   PW_Basis_K          gathers_scatterp    2.6545         130126    2e-05     4         %
   PW_Basis_K          real2recip          26.544         127419    0.00021   40        %
   PW_Basis_K          gatherp_scatters    0.72614        127419    5.7e-06   1.1       %
   DiagoIterAssist     LAPACK_subspace     0.1564         1716      9.1e-05   0.24      %
   DiagoCG             diag_once           51.941         1716      0.03      79        %
   ElecStatePW         psiToRho            0.56986        6         0.095     0.87      %
 ----------------------------------------------------------------------------------------

 START  Time  : Wed Dec 28 12:21:29 2022
 FINISH Time  : Wed Dec 28 12:22:34 2022
 TOTAL  Time  : 65
 SEE INFORMATION IN : OUT.blpstest/
