 *********************************************************
 *                                                       *
 *                  WELCOME TO ABACUS v3.0               *
 *                                                       *
 *            'Atomic-orbital Based Ab-initio            *
 *                  Computation at UStc'                 *
 *                                                       *
 *          Website: http://abacus.ustc.edu.cn/          *
 *                                                       *
 *********************************************************
 Mon Apr 17 14:42:53 2023
 MAKE THE DIR         : OUT.blpstest/
Notice: symbol 'al_locpsp' is not an element symbol!!!! set the covalent radius to be 0.
 UNIFORM GRID DIM     : 27 * 27 * 27
 UNIFORM GRID DIM(BIG): 27 * 27 * 27
func,idXC_GGA_X_PBE 101
func,idXC_GGA_C_PBE 130
 DONE(0.111689   SEC) : SETUP UNITCELL
 DONE(0.17097    SEC) : SYMMETRY
 DONE(0.542114   SEC) : INIT K-POINTS
 ---------------------------------------------------------
 Self-consistent calculations for electrons
 ---------------------------------------------------------
 SPIN    KPOINTS         PROCESSORS  
 1       256             1           
 ---------------------------------------------------------
 Use plane wave basis
 ---------------------------------------------------------
 ELEMENT NATOM       XC          
 Al      1           
 ---------------------------------------------------------
 Initial plane wave basis and FFT box
 ---------------------------------------------------------
 DONE(0.543173   SEC) : INIT BASIS
 DONE(0.543205   SEC) : INIT PHI
 DONE(0.586733   SEC) : LOCAL POTENTIAL
 DONE(0.586772   SEC) : NON-LOCAL POTENTIAL
 START CHARGE      : atomic
 DONE(0.663626   SEC) : INIT POTENTIAL
 DONE(0.663689   SEC) : INIT OPTIMIZATION
 DONE(0.66461    SEC) : INIT KEDF
======================== Running OFDFT ========================
Iter        Etot(Ha)          Theta      PotNorm     deltaE(Ha)
0     -2.020412089218e+00   2.000e-01   2.047e-01   -2.020e+00  
1     -2.020977693904e+00   8.470e-03   2.126e-01   -5.656e-04  
2     -2.097703853653e+00   8.471e-02   1.079e-01   -7.673e-02  
3     -2.098773336299e+00   9.534e-03   8.792e-03   -1.069e-03  
4     -2.098790137522e+00   1.432e-03   1.194e-03   -1.680e-05  
5     -2.098790307900e+00   9.529e-05   3.607e-04   -1.704e-07  
6     -2.098790348668e+00   9.424e-05   1.037e-04   -4.077e-08  

  |CLASS_NAME---------|NAME---------------|TIME(Sec)-----|CALLS----|AVG------|PER%-------
                       total               12.883         21        0.61      1e+02     %
   Driver              driver_line         12.875         1         13        1e+02     %
   PW_Basis            recip2real          2.2273         1763      0.0013    17        %
   PW_Basis            gathers_scatterp    0.145          1763      8.2e-05   1.1       %
   Potential           update_from_charge  7.0818         196       0.036     55        %
   Potential           cal_v_eff           7.08           196       0.036     55        %
   H_Hartree_pw        v_hartree           0.63976        196       0.0033    5         %
   PW_Basis            real2recip          2.6649         2153      0.0012    21        %
   PW_Basis            gatherp_scatters    0.13183        2153      6.1e-05   1         %
   PotXC               cal_v_eff           6.4092         196       0.033     50        %
   XC_Functional       v_xc                6.036          98        0.062     47        %
   XC_Functional       v_xc_libxc          6.394          196       0.033     50        %
   ESolver_OF          Run                 12.217         1         12        95        %
   KEDF_TF             tf_potential        0.9724         195       0.005     7.5       %
   KEDF_WT             wt_potential        3.388          195       0.017     26        %
   KEDF_vW             vw_potential        0.57466        195       0.0029    4.5       %
 ----------------------------------------------------------------------------------------

 START  Time  : Mon Apr 17 14:42:53 2023
 FINISH Time  : Mon Apr 17 14:43:06 2023
 TOTAL  Time  : 13
 SEE INFORMATION IN : OUT.blpstest/
