 *********************************************************
 *                                                       *
 *                  WELCOME TO ABACUS v3.0               *
 *                                                       *
 *            'Atomic-orbital Based Ab-initio            *
 *                  Computation at UStc'                 *
 *                                                       *
 *          Website: http://abacus.ustc.edu.cn/          *
 *                                                       *
 *********************************************************
 Wed Apr 26 09:43:29 2023
 MAKE THE DIR         : OUT.oftest/
Notice: symbol 'Li_locpsp' is not an element symbol!!!! set the covalent radius to be 0.
 UNIFORM GRID DIM     : 25 * 25 * 25
 UNIFORM GRID DIM(BIG): 25 * 25 * 25
func,idXC_GGA_X_PBE 101
func,idXC_GGA_C_PBE 130
 DONE(0.0954505  SEC) : SETUP UNITCELL
 DONE(0.150583   SEC) : SYMMETRY
 DONE(0.150797   SEC) : INIT K-POINTS
 ---------------------------------------------------------
 Self-consistent calculations for electrons
 ---------------------------------------------------------
 SPIN    KPOINTS         PROCESSORS  
 1       1               1           
 ---------------------------------------------------------
 Use plane wave basis
 ---------------------------------------------------------
 ELEMENT NATOM       XC          
 Li      1           
 ---------------------------------------------------------
 Initial plane wave basis and FFT box
 ---------------------------------------------------------
 DONE(0.151661   SEC) : INIT BASIS
 DONE(0.151679   SEC) : INIT PHI
 DONE(0.184807   SEC) : LOCAL POTENTIAL
 DONE(0.184845   SEC) : NON-LOCAL POTENTIAL
 START CHARGE      : atomic
 DONE(0.245534   SEC) : INIT POTENTIAL
 DONE(0.245583   SEC) : INIT OPTIMIZATION
Default type: double
nnode = 10
nlayer = 3
feg_net_F = 0.540933
 DONE(0.304069   SEC) : INIT KEDF
======================== Running OFDFT ========================
Iter        Etot(Ha)          Theta      PotNorm     deltaE(Ha)
0     -2.590447485465e-01   2.000e-01   1.019e-01   -2.590e-01  
1     -2.590462875825e-01   9.443e-04   1.021e-01   -1.539e-06  
2     -2.714910122170e-01   6.315e-02   9.588e-02   -1.244e-02  
3     -2.736923804846e-01   3.598e-02   1.023e-02   -2.201e-03  
4     -2.737089787018e-01   1.929e-03   3.857e-03   -1.660e-05  
5     -2.737139106352e-01   1.907e-03   3.139e-04   -4.932e-06  
6     -2.737139454763e-01   1.230e-04   1.268e-04   -3.484e-08  
7     -2.737139484285e-01   2.752e-05   4.039e-05   -2.952e-09  

  |CLASS_NAME---------|NAME---------------|TIME(Sec)-----|CALLS----|AVG------|PER%-------
                       total               132.16         21        6.3       1e+02     %
   Driver              driver_line         132.15         1         1.3e+02   1e+02     %
   PW_Basis            recip2real          2.5198         4048      0.00062   1.9       %
   PW_Basis            gathers_scatterp    0.2097         4048      5.2e-05   0.16      %
   Potential           update_from_charge  3.9258         203       0.019     3         %
   Potential           cal_v_eff           3.9244         203       0.019     3         %
   H_Hartree_pw        v_hartree           0.29889        203       0.0015    0.23      %
   PW_Basis            real2recip          2.4333         4048      0.0006    1.8       %
   PW_Basis            gatherp_scatters    0.12569        4048      3.1e-05   0.095     %
   PotXC               cal_v_eff           3.6127         203       0.018     2.7       %
   XC_Functional       v_xc                65.323         102       0.64      49        %
   XC_Functional       v_xc_libxc          3.6046         203       0.018     2.7       %
   ESolver_OF          Run                 131.85         1         1.3e+02   1e+02     %
   KEDF_vW             vw_potential        0.29068        202       0.0014    0.22      %
 ----------------------------------------------------------------------------------------

 START  Time  : Wed Apr 26 09:43:29 2023
 FINISH Time  : Wed Apr 26 09:45:42 2023
 TOTAL  Time  : 1.3e+02
 SEE INFORMATION IN : OUT.oftest/
