 *********************************************************
 *                                                       *
 *                  WELCOME TO ABACUS v3.0               *
 *                                                       *
 *            'Atomic-orbital Based Ab-initio            *
 *                  Computation at UStc'                 *
 *                                                       *
 *          Website: http://abacus.ustc.edu.cn/          *
 *                                                       *
 *********************************************************
 Wed Dec 28 12:21:27 2022
 MAKE THE DIR         : OUT.blpstest/
Notice: symbol 'al_locpsp' is not an element symbol!!!! set the covalent radius to be 0.
 UNIFORM GRID DIM     : 25 * 25 * 25
 UNIFORM GRID DIM(BIG): 25 * 25 * 25
func,idXC_GGA_X_PBE 101
func,idXC_GGA_C_PBE 130
 DONE(0.130112   SEC) : SETUP UNITCELL
 DONE(0.205186   SEC) : SYMMETRY
 DONE(0.607399   SEC) : INIT K-POINTS
 ---------------------------------------------------------
 Self-consistent calculations for electrons
 ---------------------------------------------------------
 SPIN    KPOINTS         PROCESSORS  
 1       286             1           
 ---------------------------------------------------------
 Use plane wave basis
 ---------------------------------------------------------
 ELEMENT NATOM       XC          
 Al      1           
 ---------------------------------------------------------
 Initial plane wave basis and FFT box
 ---------------------------------------------------------
 DONE(0.701924   SEC) : INIT PLANEWAVE
 MEMORY FOR PSI (MB)  : 70.8279
 DONE(0.716728   SEC) : LOCAL POTENTIAL
 DONE(0.716778   SEC) : NON-LOCAL POTENTIAL
 DONE(0.716873   SEC) : INIT BASIS
 START CHARGE      : atomic
 DONE(0.757065   SEC) : INIT SCF
 ITER   ETOT(eV)       EDIFF(eV)      DRHO       TIME(s)    
 CG1    -5.657239e+01  0.000000e+00   7.139e-02  2.359e+01  
 CG2    -5.685773e+01  -2.853372e-01  6.889e-03  5.964e+00  
 CG3    -5.686160e+01  -3.878155e-03  4.265e-06  7.294e+00  
 CG4    -5.686183e+01  -2.257459e-04  2.152e-06  1.261e+01  
 CG5    -5.686184e+01  -6.576074e-06  2.491e-08  5.675e+00  
 CG6    -5.686184e+01  -1.331386e-07  1.816e-09  8.953e+00  
 CG7    -5.686184e+01  -1.822419e-09  8.567e-11  6.422e+00  

  |CLASS_NAME---------|NAME---------------|TIME(Sec)-----|CALLS----|AVG------|PER%-------
                       total               71.294         17        4.2       1e+02     %
   Driver              driver_line         71.273         1         71        1e+02     %
   ESolver_KS_PW       Run                 70.56          1         71        99        %
   XC_Functional       v_xc                42.995         4         11        60        %
   HSolverPW           solve               70.421         7         10        99        %
   DiagoIterAssist     diagH_subspace      12.305         2002      0.0061    17        %
   OperatorPW          hPsi                63.652         120302    0.00053   89        %
   Operator            EkineticPW          0.3191         120302    2.7e-06   0.45      %
   Operator            VeffPW              63.084         120302    0.00052   88        %
   PW_Basis_K          recip2real          31.107         151473    0.00021   44        %
   PW_Basis_K          gathers_scatterp    3.0164         151473    2e-05     4.2       %
   PW_Basis_K          real2recip          29.705         148330    0.0002    42        %
   PW_Basis_K          gatherp_scatters    0.85458        148330    5.8e-06   1.2       %
   DiagoIterAssist     LAPACK_subspace     0.18045        2002      9e-05     0.25      %
   DiagoCG             diag_once           56.504         2002      0.028     79        %
   ElecStatePW         psiToRho            0.61093        7         0.087     0.86      %
 ----------------------------------------------------------------------------------------

 START  Time  : Wed Dec 28 12:21:27 2022
 FINISH Time  : Wed Dec 28 12:22:38 2022
 TOTAL  Time  : 71
 SEE INFORMATION IN : OUT.blpstest/
