 *********************************************************
 *                                                       *
 *                  WELCOME TO ABACUS v3.0               *
 *                                                       *
 *            'Atomic-orbital Based Ab-initio            *
 *                  Computation at UStc'                 *
 *                                                       *
 *          Website: http://abacus.ustc.edu.cn/          *
 *                                                       *
 *********************************************************
 Wed Dec 28 12:18:12 2022
 MAKE THE DIR         : OUT.blpstest/
Notice: symbol 'al_locpsp' is not an element symbol!!!! set the covalent radius to be 0.
 UNIFORM GRID DIM     : 27 * 27 * 27
 UNIFORM GRID DIM(BIG): 27 * 27 * 27
func,idXC_GGA_X_PBE 101
func,idXC_GGA_C_PBE 130
 DONE(0.108288   SEC) : SETUP UNITCELL
 DONE(0.162047   SEC) : SYMMETRY
 DONE(0.511611   SEC) : INIT K-POINTS
 ---------------------------------------------------------
 Self-consistent calculations for electrons
 ---------------------------------------------------------
 SPIN    KPOINTS         PROCESSORS  
 1       256             1           
 ---------------------------------------------------------
 Use plane wave basis
 ---------------------------------------------------------
 ELEMENT NATOM       XC          
 Al      1           
 ---------------------------------------------------------
 Initial plane wave basis and FFT box
 ---------------------------------------------------------
 DONE(0.577336   SEC) : INIT PLANEWAVE
 MEMORY FOR PSI (MB)  : 53.0273
 DONE(0.589913   SEC) : LOCAL POTENTIAL
 DONE(0.589966   SEC) : NON-LOCAL POTENTIAL
 DONE(0.590077   SEC) : INIT BASIS
 START CHARGE      : atomic
 DONE(0.633943   SEC) : INIT SCF
 ITER   ETOT(eV)       EDIFF(eV)      DRHO       TIME(s)    
 CG1    -5.694220e+01  0.000000e+00   8.286e-02  5.182e+01  
 CG2    -5.719018e+01  -2.479862e-01  6.505e-03  1.788e+01  
 CG3    -5.719665e+01  -6.462191e-03  2.722e-05  2.222e+01  
 CG4    -5.719696e+01  -3.187871e-04  2.416e-06  3.070e+01  
 CG5    -5.719697e+01  -8.046963e-06  7.643e-08  1.910e+01  
 CG6    -5.719697e+01  -1.020303e-07  1.752e-08  2.454e+01  
 CG7    -5.719697e+01  -8.204023e-10  6.833e-10  1.750e+01  

  |CLASS_NAME---------|NAME---------------|TIME(Sec)-----|CALLS----|AVG------|PER%-------
                       total               184.47         17        11        1e+02     %
   Driver              driver_line         184.46         1         1.8e+02   1e+02     %
   ESolver_KS_PW       Run                 183.84         1         1.8e+02   1e+02     %
   Potential           update_from_charge  0.23312        8         0.029     0.13      %
   Potential           cal_v_eff           0.23207        8         0.029     0.13      %
   PotXC               cal_v_eff           0.212          8         0.027     0.11      %
   XC_Functional       v_xc                110.64         4         28        60        %
   XC_Functional       v_xc_libxc          0.2114         8         0.026     0.11      %
   HSolverPW           solve               183.5          7         26        99        %
   DiagoIterAssist     diagH_subspace      38.265         1792      0.021     21        %
   OperatorPW          hPsi                170.09         100953    0.0017    92        %
   Operator            EkineticPW          0.56612        100953    5.6e-06   0.31      %
   Operator            VeffPW              168.92         100953    0.0017    92        %
   PW_Basis_K          recip2real          86.83          128882    0.00067   47        %
   PW_Basis_K          gathers_scatterp    5.6422         128882    4.4e-05   3.1       %
   PW_Basis_K          real2recip          76.189         126041    0.0006    41        %
   PW_Basis_K          gatherp_scatters    1.4069         126041    1.1e-05   0.76      %
   Operator            NonlocalPW          0.10034        100953    9.9e-07   0.054     %
   DiagoIterAssist     LAPACK_subspace     0.35355        1792      0.0002    0.19      %
   DiagoCG             diag_once           141.74         1792      0.079     77        %
   ElecStatePW         psiToRho            2.2082         7         0.32      1.2       %
 ----------------------------------------------------------------------------------------

 START  Time  : Wed Dec 28 12:18:12 2022
 FINISH Time  : Wed Dec 28 12:21:16 2022
 TOTAL  Time  : 1.8e+02
 SEE INFORMATION IN : OUT.blpstest/
