 *********************************************************
 *                                                       *
 *                  WELCOME TO ABACUS v3.0               *
 *                                                       *
 *            'Atomic-orbital Based Ab-initio            *
 *                  Computation at UStc'                 *
 *                                                       *
 *          Website: http://abacus.ustc.edu.cn/          *
 *                                                       *
 *********************************************************
 Mon Apr 17 14:44:05 2023
 MAKE THE DIR         : OUT.blpstest/
Notice: symbol 'al_locpsp' is not an element symbol!!!! set the covalent radius to be 0.
 UNIFORM GRID DIM     : 25 * 25 * 25
 UNIFORM GRID DIM(BIG): 25 * 25 * 25
func,idXC_GGA_X_PBE 101
func,idXC_GGA_C_PBE 130
 DONE(0.171669   SEC) : SETUP UNITCELL
 DONE(0.249086   SEC) : SYMMETRY
 DONE(0.685721   SEC) : INIT K-POINTS
 ---------------------------------------------------------
 Self-consistent calculations for electrons
 ---------------------------------------------------------
 SPIN    KPOINTS         PROCESSORS  
 1       286             1           
 ---------------------------------------------------------
 Use plane wave basis
 ---------------------------------------------------------
 ELEMENT NATOM       XC          
 Al      1           
 ---------------------------------------------------------
 Initial plane wave basis and FFT box
 ---------------------------------------------------------
 DONE(0.686652   SEC) : INIT BASIS
 DONE(0.686691   SEC) : INIT PHI
 DONE(0.739532   SEC) : LOCAL POTENTIAL
 DONE(0.73959    SEC) : NON-LOCAL POTENTIAL
 START CHARGE      : atomic
 DONE(0.82273    SEC) : INIT POTENTIAL
 DONE(0.822786   SEC) : INIT OPTIMIZATION
 DONE(0.823615   SEC) : INIT KEDF
======================== Running OFDFT ========================
Iter        Etot(Ha)          Theta      PotNorm     deltaE(Ha)
0     -1.977275042066e+00   2.000e-01   1.853e-01   -1.977e+00  
1     -2.085956544400e+00   1.515e-01   1.284e-01   -1.087e-01  
2     -2.089938413327e+00   1.899e-02   1.179e-02   -3.982e-03  
3     -2.090002155929e+00   3.019e-03   5.219e-03   -6.374e-05  
4     -2.090016605065e+00   1.908e-03   3.381e-04   -1.445e-05  
5     -2.090016669249e+00   7.650e-05   4.133e-05   -6.418e-08  
6     -2.090016670593e+00   1.879e-05   3.486e-06   -1.344e-09  

  |CLASS_NAME---------|NAME---------------|TIME(Sec)-----|CALLS----|AVG------|PER%-------
                       total               6.4686         21        0.31      1e+02     %
   Driver              driver_line         6.4111         1         6.4       99        %
   PW_Basis            setuptransform      0.10559        1         0.11      1.6       %
   PW_Basis            recip2real          0.85647        1277      0.00067   13        %
   Potential           update_from_charge  3.2123         142       0.023     50        %
   Potential           cal_v_eff           3.211          142       0.023     50        %
   H_Hartree_pw        v_hartree           0.27095        142       0.0019    4.2       %
   PW_Basis            real2recip          1.137          1559      0.00073   18        %
   PotXC               cal_v_eff           2.9259         142       0.021     45        %
   XC_Functional       v_xc                2.847          71        0.04      44        %
   XC_Functional       v_xc_libxc          2.9178         142       0.021     45        %
   ESolver_OF          Run                 5.6446         1         5.6       87        %
   KEDF_TF             tf_potential        0.48372        141       0.0034    7.5       %
   KEDF_WT             wt_potential        1.6328         141       0.012     25        %
   KEDF_vW             vw_potential        0.23081        141       0.0016    3.6       %
 ----------------------------------------------------------------------------------------

 START  Time  : Mon Apr 17 14:44:05 2023
 FINISH Time  : Mon Apr 17 14:44:12 2023
 TOTAL  Time  : 7
 SEE INFORMATION IN : OUT.blpstest/
