                                                                                     
                             WELCOME TO ABACUS                                       
                                                                                     
               'Atomic-orbital Based Ab-initio Computation at UStc'                  
                                                                                     
                     Website: http://abacus.ustc.edu.cn/                             
                                                                                     
    Version: Parallel, in development
    Processor Number is 2
    Start Time is Thu Sep 15 18:01:42 2022
                                                                                     
 ------------------------------------------------------------------------------------

 READING GENERAL INFORMATION
                           global_out_dir = OUT.blpstest/
                           global_in_card = INPUT
                               pseudo_dir = 
                              orbital_dir = 
                                    DRANK = 1
                                    DSIZE = 2
                                   DCOLOR = 1
                                    GRANK = 1
                                    GSIZE = 1
 The esolver type has been set to : ksdft_pw




 >>>>>>>>>>>>>>>>>>>>>>>>>>>>>>>>>>>>>>>>>>>>>>>>>>>>>>>>>>>>>>>>>>>>>>
 |                                                                    |
 | Reading atom information in unitcell:                              |
 | From the input file and the structure file we know the number of   |
 | different elments in this unitcell, then we list the detail        |
 | information for each element, especially the zeta and polar atomic |
 | orbital number for each element. The total atom number is counted. |
 | We calculate the nearest atom distance for each atom and show the  |
 | Cartesian and Direct coordinates for each atom. We list the file   |
 | address for atomic orbitals. The volume and the lattice vectors    |
 | in real and reciprocal space is also shown.                        |
 |                                                                    |
 <<<<<<<<<<<<<<<<<<<<<<<<<<<<<<<<<<<<<<<<<<<<<<<<<<<<<<<<<<<<<<<<<<<<<<




 READING UNITCELL INFORMATION
                                    ntype = 2
                 atom label for species 1 = Al
                 atom label for species 2 = Mg
                  lattice constant (Bohr) = 8.15039
              lattice constant (Angstrom) = 4.313

 READING ATOM TYPE 1
                               atom label = Al
                      L=0, number of zeta = 1
                      L=1, number of zeta = 1
                      L=2, number of zeta = 1
             number of atom for this type = 1
                      start magnetization = FALSE

 READING ATOM TYPE 2
                               atom label = Mg
                      L=0, number of zeta = 1
                      L=1, number of zeta = 1
                      L=2, number of zeta = 1
             number of atom for this type = 3
                      start magnetization = FALSE
                      start magnetization = FALSE
                      start magnetization = FALSE

                        TOTAL ATOM NUMBER = 4

 DIRECT COORDINATES
         atom                   x                   y                   z                 mag                  vx                  vy                  vz
     taud_Al1                   0                   0                   0                   0                   0                   0                   0
     taud_Mg1                   0                 0.5                 0.5                   0                   0                   0                   0
     taud_Mg2                 0.5                 0.5                   0                   0                   0                   0                   0
     taud_Mg3                 0.5                   0                 0.5                   0                   0                   0                   0


                          Volume (Bohr^3) = 541.421
                             Volume (A^3) = 80.2302

 Lattice vectors: (Cartesian coordinate: in unit of a_0)
                   +1                  +0                  +0
                   +0                  +1                  +0
                   +0                  +0                  +1
 Reciprocal vectors: (Cartesian coordinate: in unit of 2 pi/a_0)
                   +1                  -0                  +0
                   +0                  +1                  -0
                   +0                  -0                  +1




 >>>>>>>>>>>>>>>>>>>>>>>>>>>>>>>>>>>>>>>>>>>>>>>>>>>>>>>>>>>>>>>>>>>>>>
 |                                                                    |
 | Reading pseudopotentials files:                                    |
 | The pseudopotential file is in UPF format. The 'NC' indicates that |
 | the type of pseudopotential is 'norm conserving'. Functional of    |
 | exchange and correlation is decided by 4 given parameters in UPF   |
 | file.  We also read in the 'core correction' if there exists.      |
 | Also we can read the valence electrons number and the maximal      |
 | angular momentum used in this pseudopotential. We also read in the |
 | trail wave function, trail atomic density and local-pseudopotential|
 | on logrithmic grid. The non-local pseudopotential projector is also|
 | read in if there is any.                                           |
 |                                                                    |
 <<<<<<<<<<<<<<<<<<<<<<<<<<<<<<<<<<<<<<<<<<<<<<<<<<<<<<<<<<<<<<<<<<<<<<




                PAO radial cut off (Bohr) = 15

 Read in pseudopotential file is Al.pz-vbc.UPF
                     pseudopotential type = NC
          exchange-correlation functional = PZ
                 nonlocal core correction = 0
                        valence electrons = 3
                                     lmax = 1
                           number of zeta = 2
                     number of projectors = 2
                           L of projector = 0
                           L of projector = 1
                PAO radial cut off (Bohr) = 15

 Read in pseudopotential file is mg.lda.lps
                     pseudopotential type = 
          exchange-correlation functional = PZ
                 nonlocal core correction = 0
                        valence electrons = 2
                                     lmax = 0
                           number of zeta = 0
                     number of projectors = 0
Notice: symbol 'mg_locpsp' is not an element symbol!!!! set the covalent radius to be 0.
     initial pseudo atomic orbital number = 4
                                   NLOCAL = 36




 >>>>>>>>>>>>>>>>>>>>>>>>>>>>>>>>>>>>>>>>>>>>>>>>>>>>>>>>>>>>>>>>>>>>>>
 |                                                                    |
 | Setup plane waves of charge/potential:                             |
 | Use the energy cutoff and the lattice vectors to generate the      |
 | dimensions of FFT grid. The number of FFT grid on each processor   |
 | is 'nrxx'. The number of plane wave basis in reciprocal space is   |
 | different for charege/potential and wave functions. We also set    |
 | the 'sticks' for the parallel of FFT. The number of plane waves    |
 | is 'npw' in each processor.                                        |
 <<<<<<<<<<<<<<<<<<<<<<<<<<<<<<<<<<<<<<<<<<<<<<<<<<<<<<<<<<<<<<<<<<<<<<





 SETUP THE PLANE WAVE BASIS
 energy cutoff for charge/potential (unit:Ry) = 240
          [fft grid for charge/potential] = 45, 45, 45
                      [fft grid division] = 1, 1, 1
      [big fft grid for charge/potential] = 45, 45, 45
                                     nbxx = 46575
                                     nrxx = 46575

 SETUP PLANE WAVES FOR CHARGE/POTENTIAL
                    number of plane waves = 33881
                         number of sticks = 1265

 PARALLEL PW FOR CHARGE/POTENTIAL
     PROC   COLUMNS(POT)             PW
        1            633          16941
        2            632          16940
 --------------- sum -------------------
        2           1265          33881
                            number of |g| = 338
                                  max |g| = 403
                                  min |g| = 0

 SETUP THE ELECTRONS NUMBER
            electron number of element Al = 3
      total electron number of element Al = 3
            electron number of element Mg = 2
      total electron number of element Mg = 6
                           occupied bands = 5
                                   NBANDS = 8
 DONE : SETUP UNITCELL Time : 0.047439 (SEC)





 >>>>>>>>>>>>>>>>>>>>>>>>>>>>>>>>>>>>>>>>>>>>>>>>>>>>>>>>>>>>>>>>>>>>>>
 |                                                                    |
 | Doing symmetry analysis:                                           |
 | We calculate the norm of 3 vectors and the angles between them,    |
 | the type of Bravais lattice is given. We can judge if the unticell |
 | is a primitive cell. Finally we give the point group operation for |
 | this unitcell. We we use the point group operations to do symmetry |
 | analysis on given k-point mesh and the charge density.             |
 |                                                                    |
 <<<<<<<<<<<<<<<<<<<<<<<<<<<<<<<<<<<<<<<<<<<<<<<<<<<<<<<<<<<<<<<<<<<<<<




 LATTICE VECTORS: (CARTESIAN COORDINATE: IN UNIT OF A0)
                   +1                  +0                  +0
                   +0                  +1                  +0
                   +0                  +0                  +1
                       right hand lattice = 1
                                   NORM_A = 1
                                   NORM_B = 1
                                   NORM_C = 1
                           ALPHA (DEGREE) = 90
                           BETA  (DEGREE) = 90
                           GAMMA (DEGREE) = 90
                             BRAVAIS TYPE = 1
                     BRAVAIS LATTICE NAME = 01. Cubic P (simple)
                                    IBRAV = 1
                                  BRAVAIS = SIMPLE CUBIC
                       LATTICE CONSTANT A = 4.3589
                                    ibrav = 1
                        ROTATION MATRICES = 48
              PURE POINT GROUP OPERATIONS = 48
                   SPACE GROUP OPERATIONS = 48
                              POINT GROUP = O_h
Warning : If the optimal symmetric configuration is not the input configuration, 
you have to manually change configurations, ABACUS would only calculate the input structure!
 DONE : SYMMETRY Time : 0.134346 (SEC)





 >>>>>>>>>>>>>>>>>>>>>>>>>>>>>>>>>>>>>>>>>>>>>>>>>>>>>>>>>>>>>>>>>>>>>>
 |                                                                    |
 | Setup K-points                                                     |
 | We setup the k-points according to input parameters.               |
 | The reduced k-points are set according to symmetry operations.     |
 | We treat the spin as another set of k-points.                      |
 |                                                                    |
 <<<<<<<<<<<<<<<<<<<<<<<<<<<<<<<<<<<<<<<<<<<<<<<<<<<<<<<<<<<<<<<<<<<<<<





 SETUP K-POINTS
                                    nspin = 1
                   Input type of k points = Monkhorst-Pack(Gamma)
                                   nkstot = 8
                               nkstot_ibz = 4
      IBZ             DirectX             DirectY             DirectZ              Weight    ibz2bz
        1                   0                   0                   0               0.125         0
        2                   0                   0                 0.5               0.375         1
        3                   0                 0.5                 0.5               0.375         3
        4                 0.5                 0.5                 0.5               0.125         7
                               nkstot now = 4

  KPOINTS            DIRECT_X            DIRECT_Y            DIRECT_Z              WEIGHT
        1                   0                   0                   0               0.125
        2                   0                   0                 0.5               0.375
        3                   0                 0.5                 0.5               0.375
        4                 0.5                 0.5                 0.5               0.125

           k-point number in this process = 4
       minimum distributed K point number = 4

  KPOINTS         CARTESIAN_X         CARTESIAN_Y         CARTESIAN_Z              WEIGHT
        1                   0                   0                   0                0.25
        2                   0                   0                 0.5                0.75
        3                   0                 0.5                 0.5                0.75
        4                 0.5                 0.5                 0.5                0.25

  KPOINTS            DIRECT_X            DIRECT_Y            DIRECT_Z              WEIGHT
        1                   0                   0                   0                0.25
        2                   0                   0                 0.5                0.75
        3                   0                 0.5                 0.5                0.75
        4                 0.5                 0.5                 0.5                0.25
 DONE : INIT K-POINTS Time : 0.134895 (SEC)





 >>>>>>>>>>>>>>>>>>>>>>>>>>>>>>>>>>>>>>>>>>>>>>>>>>>>>>>>>>>>>>>>>>>>>>
 |                                                                    |
 | Setup plane waves of wave functions:                               |
 | Use the energy cutoff and the lattice vectors to generate the      |
 | dimensions of FFT grid. The number of FFT grid on each processor   |
 | is 'nrxx'. The number of plane wave basis in reciprocal space is   |
 | different for charege/potential and wave functions. We also set    |
 | the 'sticks' for the parallel of FFT. The number of plane wave of  |
 | each k-point is 'npwk[ik]' in each processor                       |
 <<<<<<<<<<<<<<<<<<<<<<<<<<<<<<<<<<<<<<<<<<<<<<<<<<<<<<<<<<<<<<<<<<<<<<





 SETUP PLANE WAVES FOR WAVE FUNCTIONS
     energy cutoff for wavefunc (unit:Ry) = 60
            [fft grid for wave functions] = 45, 45, 45
                    number of plane waves = 5449
                         number of sticks = 373

 PARALLEL PW FOR WAVE FUNCTIONS
     PROC   COLUMNS(POT)             PW
        1            186           2724
        2            187           2725
 --------------- sum -------------------
        2            373           5449
 DONE : INIT PLANEWAVE Time : 0.137785 (SEC)

 DONE : INIT CHARGE Time : 0.160001 (SEC)

                                     npwx = 2142

 SETUP NONLOCAL PSEUDOPOTENTIALS IN PLANE WAVE BASIS
 Al non-local projectors:
 projector 1 L=0
 projector 2 L=1
 Mg non-local projectors:
      TOTAL NUMBER OF NONLOCAL PROJECTORS = 4
 DONE : LOCAL POTENTIAL Time : 0.192291 (SEC)


 Init Non-Local PseudoPotential table : 
 Init Non-Local-Pseudopotential done.
 DONE : NON-LOCAL POTENTIAL Time : 0.213602 (SEC)

                                 init_chg = atomic
 DONE : INIT POTENTIAL Time : 0.335968 (SEC)


 Make real space PAO into reciprocal space.
       max mesh points in Pseudopotential = 1501
     dq(describe PAO in reciprocal space) = 0.01
                                    max q = 934

 number of pseudo atomic orbitals for Al is 2
 the unit of pseudo atomic orbital is 1, renormalize to 1
 the unit of pseudo atomic orbital is 0.999968, renormalize to 1

 number of pseudo atomic orbitals for Mg is 0
 DONE : INIT BASIS Time : 0.345362 (SEC)


 -------------------------------------------
 RELAX CELL : 1
 RELAX IONS : 1 (in total: 1)
 -------------------------------------------

 PW ALGORITHM --------------- ION=   1  ELEC=   1--------------------------------

 Density error is 0.21075076354
                          Error Threshold = 0.01

       Energy                       Rydberg                            eV
   E_KohnSham                -9.54438469825                  -129.8580158
     E_Harris                -9.57918236559                -130.331462353
      E_Fermi               +0.412251291461                +5.60896657173

 PW ALGORITHM --------------- ION=   1  ELEC=   2--------------------------------

 Density error is 0.016607918137
                          Error Threshold = 0.00234167515044

       Energy                       Rydberg                            eV
   E_KohnSham                -9.57176476854                -130.230540768
     E_Harris                -9.56357352456                -130.119093176
      E_Fermi               +0.380589687858                +5.17818835491

 PW ALGORITHM --------------- ION=   1  ELEC=   3--------------------------------

 Density error is 0.0013185118242
                          Error Threshold = 0.000184532423745

       Energy                       Rydberg                            eV
   E_KohnSham                -9.57404102474                -130.261510822
     E_Harris                -9.57461136375                -130.269270682
      E_Fermi               +0.394697400753                +5.37013363603

 PW ALGORITHM --------------- ION=   1  ELEC=   4--------------------------------

 Density error is 1.85601127736e-05
                          Error Threshold = 1.465013138e-05

       Energy                       Rydberg                            eV
   E_KohnSham                -9.57438367279                -130.266172788
     E_Harris                 -9.5743942983                -130.266317356
      E_Fermi               +0.390539352873                +5.31356049231

 PW ALGORITHM --------------- ION=   1  ELEC=   5--------------------------------

 Density error is 3.84305751221e-07
                          Error Threshold = 2.06223475262e-07

       Energy                       Rydberg                            eV
   E_KohnSham                -9.57439357483                -130.266307512
     E_Harris                -9.57439366735                -130.266308771
      E_Fermi               +0.391123331853                +5.32150593395

 PW ALGORITHM --------------- ION=   1  ELEC=   6--------------------------------

 Density error is 1.91879517214e-08
                          Error Threshold = 4.27006390246e-09

       Energy                       Rydberg                            eV
   E_KohnSham                -9.57439372569                -130.266309565
     E_Harris                -9.57439373785                 -130.26630973
      E_Fermi               +0.391063364097                +5.32069003077

 PW ALGORITHM --------------- ION=   1  ELEC=   7--------------------------------

 Density error is 3.81540061741e-09
                          Error Threshold = 2.13199463571e-10

       Energy                       Rydberg                            eV
   E_KohnSham                -9.57439373616                -130.266309707
     E_Harris                -9.57439373799                -130.266309732
      E_Fermi               +0.391045147351                +5.32044217923

 PW ALGORITHM --------------- ION=   1  ELEC=   8--------------------------------

 Density error is 8.00884220708e-11
                          Error Threshold = 4.23933401935e-11

       Energy                       Rydberg                            eV
   E_KohnSham                -9.57439373676                -130.266309715
     E_Harris                -9.57439373681                -130.266309716
       E_band               +0.944651822016                +12.8526474055
   E_one_elec                +6.05666046181                +82.4050931319
    E_Hartree               +0.193793068903                +2.63668996998
         E_xc                -4.22401650972                -57.4706929783
      E_Ewald                -11.5987774808                -157.809463573
      E_demet             -0.00205327698365              -0.0279362665499
      E_descf                            +0                            +0
     E_efield                            +0                            +0
        E_exx                            +0                            +0
      E_Fermi               +0.391050680819                +5.32051746592

 charge density convergence is achieved
 final etot is -130.266309715 eV

 STATE ENERGY(eV) AND OCCUPATIONS    NSPIN == 1
 1/4 kpoint (Cartesian) = 0 0 0 (2087 pws)
       1       -3.65723       0.250000
       2        3.68431       0.250000
       3        3.68431       0.250000
       4        3.68431       0.250000
       5        4.17816       0.250000
       6        5.48697     0.00242321
       7        5.48697     0.00242321
       8        10.8944        0.00000

 2/4 kpoint (Cartesian) = 0.00000 0.00000 0.500000 (2100 pws)
       1       -2.03694       0.750000
       2       -1.25029       0.750000
       3        5.25256       0.622577
       4        5.25256       0.622577
       5        6.07516        0.00000
       6        6.07516        0.00000
       7        6.36149        0.00000
       8        6.66408        0.00000

 3/4 kpoint (Cartesian) = 0.00000 0.500000 0.500000 (2128 pws)
       1      -0.566350       0.750000
       2       0.586599       0.750000
       3       0.586599       0.750000
       4       0.841125       0.750000
       5        6.57429        0.00000
       6        7.93455        0.00000
       7        7.93455        0.00000
       8        8.11558        0.00000

 4/4 kpoint (Cartesian) = 0.500000 0.500000 0.500000 (2142 pws)
       1       0.908015       0.250000
       2        2.02676       0.250000
       3        2.02676       0.250000
       4        2.02676       0.250000
       5        2.51697       0.250000
       6        3.19397       0.250000
       7        3.19397       0.250000
       8        3.19397       0.250000




 ><><><><><><><><><><><><><><><><><><><><><><

    TOTAL-FORCE (eV/Angstrom)

 ><><><><><><><><><><><><><><><><><><><><><><

     atom              x              y              z
      Al1              0              0              0
      Mg1              0              0              0
      Mg2              0              0              0
      Mg3              0              0              0


 ><><><><><><><><><><><><><><><><><><><><><><

 TOTAL-STRESS (KBAR)

 ><><><><><><><><><><><><><><><><><><><><><><

       +2.143951      +0.000000      +0.000000
       +0.000000      +2.143951      -0.000000
       +0.000000      -0.000000      +2.143951
 TOTAL-PRESSURE: +2.143951 KBAR
 largest force is 0, no movement is possible.
 it may converged, otherwise no movement of atom is allowed.
 end of geometry optimization
                                    istep = +1
                         update iteration = +0

 DIRECT COORDINATES
         atom                   x                   y                   z                 mag                  vx                  vy                  vz
     taud_Al1           +0.000000           +0.000000           +0.000000           +0.000000           +0.000000           +0.000000           +0.000000
     taud_Mg1           +0.000000           +0.500000           +0.500000           +0.000000           +0.000000           +0.000000           +0.000000
     taud_Mg2           +0.500000           +0.500000           +0.000000           +0.000000           +0.000000           +0.000000           +0.000000
     taud_Mg3           +0.500000           +0.000000           +0.500000           +0.000000           +0.000000           +0.000000           +0.000000


 Lattice relaxation is not converged yet (threshold is +0.010000)

                          Volume (Bohr^3) = +542.572128
                            Volume (A^3)) = +80.400798

 Lattice vectors: (Cartesian coordinate: in unit of a_0)
            +1.000708           +0.000000           +0.000000
            +0.000000           +1.000708           -0.000000
            +0.000000           -0.000000           +1.000708
 Reciprocal vectors: (Cartesian coordinate: in unit of 2 pi/a_0)
            +0.999292           -0.000000           -0.000000
            -0.000000           +0.999292           +0.000000
            -0.000000           +0.000000           +0.999292
 DONE : SETUP UNITCELL Time : 4.249241 (SEC)





 >>>>>>>>>>>>>>>>>>>>>>>>>>>>>>>>>>>>>>>>>>>>>>>>>>>>>>>>>>>>>>>>>>>>>>
 |                                                                    |
 | Doing symmetry analysis:                                           |
 | We calculate the norm of 3 vectors and the angles between them,    |
 | the type of Bravais lattice is given. We can judge if the unticell |
 | is a primitive cell. Finally we give the point group operation for |
 | this unitcell. We we use the point group operations to do symmetry |
 | analysis on given k-point mesh and the charge density.             |
 |                                                                    |
 <<<<<<<<<<<<<<<<<<<<<<<<<<<<<<<<<<<<<<<<<<<<<<<<<<<<<<<<<<<<<<<<<<<<<<




 LATTICE VECTORS: (CARTESIAN COORDINATE: IN UNIT OF A0)
            +1.000708           +0.000000           +0.000000
            +0.000000           +1.000708           -0.000000
            +0.000000           -0.000000           +1.000708
                       right hand lattice = 1
                             BRAVAIS TYPE = 1
                     BRAVAIS LATTICE NAME = 01. Cubic P (simple)
                                    IBRAV = 1
                                  BRAVAIS = SIMPLE CUBIC
                       LATTICE CONSTANT A = 4.361987
                                    ibrav = 1
                        ROTATION MATRICES = 48
              PURE POINT GROUP OPERATIONS = 48
                   SPACE GROUP OPERATIONS = 48
                              POINT GROUP = O_h
Warning : If the optimal symmetric configuration is not the input configuration, 
you have to manually change configurations, ABACUS would only calculate the input structure!
 DONE : SYMMETRY Time : 4.281912 (SEC)


 SETUP K-POINTS
                                    nspin = 1

  KPOINTS            DIRECT_X            DIRECT_Y            DIRECT_Z              WEIGHT
        1            0.000000            0.000000            0.000000            0.250000
        2            0.000000            0.000000            0.500000            0.750000
        3            0.000000            0.500000            0.500000            0.750000
        4            0.500000            0.500000            0.500000            0.250000

           k-point number in this process = 4
       minimum distributed K point number = 4

  KPOINTS         CARTESIAN_X         CARTESIAN_Y         CARTESIAN_Z              WEIGHT
        1            0.000000            0.000000            0.000000            0.250000
        2            0.000000            0.000000            0.499646            0.750000
        3            0.000000            0.499646            0.499646            0.750000
        4            0.499646            0.499646            0.499646            0.250000

  KPOINTS            DIRECT_X            DIRECT_Y            DIRECT_Z              WEIGHT
        1            0.000000            0.000000            0.000000            0.250000
        2            0.000000            0.000000            0.500000            0.750000
        3            0.000000            0.500000            0.500000            0.750000
        4            0.500000            0.500000            0.500000            0.250000
 DONE : INIT K-POINTS Time : 4.284745 (SEC)

 Setup the Vl+Vh+Vxc according to new structure factor and new charge.
 DONE : LOCAL POTENTIAL Time : 4.328683 (SEC)


 Init Non-Local PseudoPotential table : 
 Init Non-Local-Pseudopotential done.
 DONE : NON-LOCAL POTENTIAL Time : 4.335784 (SEC)


 -------------------------------------------
 RELAX CELL : 2
 RELAX IONS : 1 (in total: 2)
 -------------------------------------------
                                     npwx = 2142

 Make real space PAO into reciprocal space.
       max mesh points in Pseudopotential = 1501
     dq(describe PAO in reciprocal space) = 0.010000
                                    max q = 934

 number of pseudo atomic orbitals for Al is 2
 the unit of pseudo atomic orbital is 1.000000, renormalize to 1.000000
 the unit of pseudo atomic orbital is 1.000000, renormalize to 1.000000

 number of pseudo atomic orbitals for Mg is 0

 PW ALGORITHM --------------- ION=   2  ELEC=   1--------------------------------
 Notice: Threshold on eigenvalues was too large.
 hsover_error=0.090000 > DRHO=0.000001
 Origin diag_ethr = 0.010000
 New    diag_ethr = 0.000000

 Density error is 0.000001105708
                          Error Threshold = 0.000000007030

       Energy                       Rydberg                            eV
   E_KohnSham               -9.574406175743             -130.266478956494
     E_Harris               -9.574406613120             -130.266484907316
      E_Fermi               +0.389854624633               +5.304244286655

 PW ALGORITHM --------------- ION=   2  ELEC=   2--------------------------------

 Density error is 0.000000150092
                          Error Threshold = 0.000000012286

       Energy                       Rydberg                            eV
   E_KohnSham               -9.574406335430             -130.266481129147
     E_Harris               -9.574406411105             -130.266482158759
      E_Fermi               +0.389960339434               +5.305682610317

 PW ALGORITHM --------------- ION=   2  ELEC=   3--------------------------------

 Density error is 0.000000019275
                          Error Threshold = 0.000000001668

       Energy                       Rydberg                            eV
   E_KohnSham               -9.574406368723             -130.266481582116
     E_Harris               -9.574406377276             -130.266481698487
      E_Fermi               +0.389910154170               +5.304999804771

 PW ALGORITHM --------------- ION=   2  ELEC=   4--------------------------------

 Density error is 0.000000000027
                          Error Threshold = 0.000000000214

       Energy                       Rydberg                            eV
   E_KohnSham               -9.574406371871             -130.266481624948
     E_Harris               -9.574406371883             -130.266481625111
       E_band               +0.937344712502              +12.753229080195
   E_one_elec               +6.045667711508              +82.255529091126
    E_Hartree               +0.193869333641               +2.637727604977
         E_xc               -4.221319960224              -57.434004540181
      E_Ewald              -11.590567053502             -157.697754978694
      E_demet               -0.002056403293               -0.027978802175
      E_descf               +0.000000000000               +0.000000000000
     E_efield               +0.000000000000               +0.000000000000
        E_exx               +0.000000000000               +0.000000000000
      E_Fermi               +0.389922421895               +5.305166715733

 charge density convergence is achieved
 final etot is -130.266481624948 eV

 STATE ENERGY(eV) AND OCCUPATIONS    NSPIN == 1
 1/4 kpoint (Cartesian) = 0.00000 0.00000 0.00000 (2087 pws)
       1      -3.661543       0.250000
       2       3.671274       0.250000
       3       3.671274       0.250000
       4       3.671274       0.250000
       5       4.159040       0.250000
       6       5.470636       0.002514
       7       5.470636       0.002514
       8      10.868275       0.000000

 2/4 kpoint (Cartesian) = 0.000000 0.000000 0.499646 (2100 pws)
       1      -2.043926       0.750000
       2      -1.257445       0.750000
       3       5.237242       0.622486
       4       5.237242       0.622486
       5       6.059058       0.000000
       6       6.059058       0.000000
       7       6.345412       0.000000
       8       6.649451       0.000000

 3/4 kpoint (Cartesian) = 0.000000 0.499646 0.499646 (2128 pws)
       1      -0.576301       0.750000
       2       0.577335       0.750000
       3       0.577335       0.750000
       4       0.830910       0.750000
       5       6.556816       0.000000
       6       7.916413       0.000000
       7       7.916413       0.000000
       8       8.093296       0.000000

 4/4 kpoint (Cartesian) = 0.499646 0.499646 0.499646 (2142 pws)
       1       0.893457       0.250000
       2       2.017002       0.250000
       3       2.017002       0.250000
       4       2.017002       0.250000
       5       2.505668       0.250000
       6       3.178946       0.250000
       7       3.178946       0.250000
       8       3.178946       0.250000




 ><><><><><><><><><><><><><><><><><><><><><><

    TOTAL-FORCE (eV/Angstrom)

 ><><><><><><><><><><><><><><><><><><><><><><

     atom              x              y              z
      Al1              0              0              0
      Mg1              0              0              0
      Mg2              0              0              0
      Mg3              0              0              0


 ><><><><><><><><><><><><><><><><><><><><><><

 TOTAL-STRESS (KBAR)

 ><><><><><><><><><><><><><><><><><><><><><><

       +1.087686      +0.000000      -0.000000
       +0.000000      +1.087686      +0.000000
       -0.000000      +0.000000      +1.087686
 TOTAL-PRESSURE: +1.087686 KBAR


 --------------------------------------------
 !FINAL_ETOT_IS -130.2664816249480850 eV
 --------------------------------------------






  |CLASS_NAME---------|NAME---------------|TIME(Sec)-----|CALLS----|AVG------|PER%-------
                                      total       +6.00481        29     +0.21   +100.00%
                 Driver         driver_line       +5.99213         1     +5.99    +99.79%
               Symmetry           analy_sys       +4.20173         1     +4.20    +69.97%
              Potential            init_pot       +0.14751         2     +0.07     +2.46%
              Potential            v_of_rho       +0.17074        14     +0.01     +2.84%
           H_Hartree_pw           v_hartree       +0.11756        14     +0.01     +1.96%
               PW_Basis          real2recip       +0.10762        50     +0.00     +1.79%
          ESolver_KS_PW                 Run       +5.38733         2     +2.69    +89.72%
               Symmetry        rho_symmetry       +0.10961        15     +0.01     +1.83%
              HSolverPW               solve       +4.85325        13     +0.37    +80.82%
        DiagoIterAssist      diagH_subspace       +0.81994        44     +0.02    +13.65%
             OperatorPW                hPsi       +4.01156      1437     +0.00    +66.81%
               Operator              VeffPW       +3.76961      1437     +0.00    +62.78%
             PW_Basis_K          recip2real       +1.49019      2044     +0.00    +24.82%
             PW_Basis_K    gathers_scatterp       +0.58591      2044     +0.00     +9.76%
             PW_Basis_K          real2recip       +1.61373      1745     +0.00    +26.87%
             PW_Basis_K    gatherp_scatters       +0.29936      1745     +0.00     +4.99%
               Operator          NonlocalPW       +0.19661      1437     +0.00     +3.27%
                DiagoCG           diag_once       +3.57190        52     +0.07    +59.48%
            ElecStatePW            psiToRho       +0.38420        13     +0.03     +6.40%
                 Charge             mix_rho       +0.12258        10     +0.01     +2.04%
 ----------------------------------------------------------------------------------------

 CLASS_NAME---------|NAME---------------|MEMORY(MB)--------
                                         +14.8231
         Charge_Pulay                Rrho        +2.8427
         Charge_Pulay               dRrho        +2.4874
         Charge_Pulay                drho        +2.4874
             wavefunc                 psi        +1.0459
 ----------------------------------------------------------

 Start  Time  : Thu Sep 15 18:01:42 2022
 Finish Time  : Thu Sep 15 18:01:48 2022
 Total  Time  : 0 h 0 mins 6 secs 
