 *********************************************************
 *                                                       *
 *                  WELCOME TO ABACUS v3.0               *
 *                                                       *
 *            'Atomic-orbital Based Ab-initio            *
 *                  Computation at UStc'                 *
 *                                                       *
 *          Website: http://abacus.ustc.edu.cn/          *
 *                                                       *
 *********************************************************
 Sat May 13 19:47:26 2023
 MAKE THE DIR         : OUT.oftest/
Notice: symbol 'Li_locpsp' is not an element symbol!!!! set the covalent radius to be 0.
Notice: symbol 'mg_locpsp' is not an element symbol!!!! set the covalent radius to be 0.
 UNIFORM GRID DIM     : 40 * 40 * 80
 UNIFORM GRID DIM(BIG): 40 * 40 * 80
func,idXC_GGA_X_PBE 101
func,idXC_GGA_C_PBE 130
 DONE(0.432658   SEC) : SETUP UNITCELL
 DONE(0.48847    SEC) : SYMMETRY
 DONE(0.488704   SEC) : INIT K-POINTS
 ---------------------------------------------------------
 Self-consistent calculations for electrons
 ---------------------------------------------------------
 SPIN    KPOINTS         PROCESSORS  
 1       1               1           
 ---------------------------------------------------------
 Use plane wave basis
 ---------------------------------------------------------
 ELEMENT NATOM       XC          
 Li      6           
 Mg      2           
 ---------------------------------------------------------
 Initial plane wave basis and FFT box
 ---------------------------------------------------------
 DONE(1.01757    SEC) : INIT BASIS
 DONE(1.0176     SEC) : INIT PHI
 DONE(2.41238    SEC) : LOCAL POTENTIAL
 DONE(2.41242    SEC) : NON-LOCAL POTENTIAL
 START CHARGE      : atomic
 DONE(4.07699    SEC) : INIT POTENTIAL
 DONE(4.07775    SEC) : INIT OPTIMIZATION
Default type: double
nnode = 10
nlayer = 3
feg_net_F = 0.540933
 DONE(4.15217    SEC) : INIT KEDF
======================== Running OFDFT ========================
Iter        Etot(Ha)          Theta      PotNorm     deltaE(Ha)
0     -3.260738667930e+00   2.000e-01   9.045e-02   -3.261e+00  
1     -3.429430301312e+00   9.537e-02   8.308e-02   -1.687e-01  
2     -3.432897169638e+00   7.072e-03   1.022e-01   -3.467e-03  
3     -3.457952661782e+00   4.109e-02   3.380e-02   -2.506e-02  
4     -3.461253879579e+00   9.735e-03   1.312e-02   -3.301e-03  
5     -3.462557758770e+00   1.405e-02   8.623e-04   -1.304e-03  
6     -3.462559584742e+00   2.772e-04   1.326e-04   -1.826e-06  
7     -3.462559646127e+00   5.085e-05   6.333e-05   -6.139e-08  
8     -3.462559659229e+00   2.159e-05   3.932e-05   -1.310e-08  
 ><><><><><><><><><><><><><><><><><><><><><><
 TOTAL-STRESS (KBAR):
 ><><><><><><><><><><><><><><><><><><><><><><
 -2.462e+02     0.000e+00      8.045e-25      
 0.000e+00      -2.462e+02     -4.022e-25     
 -8.045e-25     -8.045e-25     -2.466e+02     
 TOTAL-PRESSURE: -2.463e+02 KBAR

  |CLASS_NAME---------|NAME---------------|TIME(Sec)-----|CALLS----|AVG------|PER%-------
                       total               974.38         21        46        1e+02     %
   Driver              driver_line         974.37         1         9.7e+02   1e+02     %
   PW_Basis            setuptransform      0.37016        1         0.37      0.038     %
   PW_Basis            setup_struc_factor  0.52867        1         0.53      0.054     %
   ppcell_vl           init_vloc           1.3946         1         1.4       0.14      %
   Charge              atomic_rho          1.4157         1         1.4       0.15      %
   PW_Basis            recip2real          21.93          3471      0.0063    2.3       %
   PW_Basis            gathers_scatterp    1.8547         3471      0.00053   0.19      %
   Potential           init_pot            0.24097        1         0.24      0.025     %
   Potential           update_from_charge  31.863         174       0.18      3.3       %
   Potential           cal_v_eff           31.853         174       0.18      3.3       %
   H_Hartree_pw        v_hartree           2.6191         174       0.015     0.27      %
   PW_Basis            real2recip          22.409         3473      0.0065    2.3       %
   PW_Basis            gatherp_scatters    1.1947         3473      0.00034   0.12      %
   PotXC               cal_v_eff           29.141         174       0.17      3         %
   XC_Functional       v_xc                480.38         87        5.5       49        %
   XC_Functional       v_xc_libxc          29.096         174       0.17      3         %
   ESolver_OF          Run                 965.69         1         9.7e+02   99        %
   KEDF_vW             vw_potential        2.5139         173       0.015     0.26      %
   Forces              cal_force_loc       0.54601        1         0.55      0.056     %
   Forces              cal_force_ew        0.53951        1         0.54      0.055     %
   OF_Stress_PW        cal_stress          3.4437         1         3.4       0.35      %
   Stress_Func         stress_ewa          0.55372        1         0.55      0.057     %
   Stress_Func         stress_gga          0.34247        1         0.34      0.035     %
   Stress_Func         stress_loc          2.5362         1         2.5       0.26      %
 ----------------------------------------------------------------------------------------

 START  Time  : Sat May 13 19:47:26 2023
 FINISH Time  : Sat May 13 20:03:40 2023
 TOTAL  Time  : 9.7e+02
 SEE INFORMATION IN : OUT.oftest/
