 *********************************************************
 *                                                       *
 *                  WELCOME TO ABACUS v3.0               *
 *                                                       *
 *            'Atomic-orbital Based Ab-initio            *
 *                  Computation at UStc'                 *
 *                                                       *
 *          Website: http://abacus.ustc.edu.cn/          *
 *                                                       *
 *********************************************************
 Wed Dec 28 12:18:12 2022
 MAKE THE DIR         : OUT.blpstest/
Notice: symbol 'al_locpsp' is not an element symbol!!!! set the covalent radius to be 0.
 UNIFORM GRID DIM     : 27 * 27 * 45
 UNIFORM GRID DIM(BIG): 27 * 27 * 45
func,idXC_GGA_X_PBE 101
func,idXC_GGA_C_PBE 130
 DONE(0.137013   SEC) : SETUP UNITCELL
 DONE(0.188335   SEC) : SYMMETRY
 DONE(0.215392   SEC) : INIT K-POINTS
 ---------------------------------------------------------
 Self-consistent calculations for electrons
 ---------------------------------------------------------
 SPIN    KPOINTS         PROCESSORS  
 1       133             1           
 ---------------------------------------------------------
 Use plane wave basis
 ---------------------------------------------------------
 ELEMENT NATOM       XC          
 Al      2           
 ---------------------------------------------------------
 Initial plane wave basis and FFT box
 ---------------------------------------------------------
 DONE(0.290485   SEC) : INIT PLANEWAVE
 MEMORY FOR PSI (MB)  : 55.8293
 DONE(0.359662   SEC) : LOCAL POTENTIAL
 DONE(0.359705   SEC) : NON-LOCAL POTENTIAL
 DONE(0.359776   SEC) : INIT BASIS
 START CHARGE      : atomic
 DONE(0.479957   SEC) : INIT SCF
 ITER   ETOT(eV)       EDIFF(eV)      DRHO       TIME(s)    
 CG1    -1.137586e+02  0.000000e+00   1.589e-01  4.830e+01  
 CG2    -1.143191e+02  -5.604912e-01  1.288e-02  1.732e+01  
 CG3    -1.143357e+02  -1.663465e-02  4.637e-04  2.282e+01  
 CG4    -1.143382e+02  -2.523428e-03  3.040e-04  2.467e+01  
 CG5    -1.143390e+02  -7.657871e-04  1.758e-06  1.697e+01  
 CG6    -1.143390e+02  -2.832684e-06  3.234e-08  2.706e+01  
 CG7    -1.143390e+02  -3.196416e-07  1.033e-08  2.360e+01  
 CG8    -1.143390e+02  -4.263917e-09  9.325e-10  1.609e+01  

  |CLASS_NAME---------|NAME---------------|TIME(Sec)-----|CALLS----|AVG------|PER%-------
                       total               197.36         17        12        1e+02     %
   Driver              driver_line         197.35         1         2e+02     1e+02     %
   PW_Basis            setuptransform      0.1231         1         0.12      0.062     %
   ESolver_KS_PW       Run                 196.98         1         2e+02     1e+02     %
   Potential           update_from_charge  0.4802         9         0.053     0.24      %
   Potential           cal_v_eff           0.4788         9         0.053     0.24      %
   PW_Basis            real2recip          0.14505        88        0.0016    0.073     %
   PotXC               cal_v_eff           0.44181        9         0.049     0.22      %
   XC_Functional       v_xc                111.69         5         22        57        %
   XC_Functional       v_xc_libxc          0.43922        9         0.049     0.22      %
   HSolverPW           solve               196.32         8         25        99        %
   DiagoIterAssist     diagH_subspace      39.959         1064      0.038     20        %
   OperatorPW          hPsi                179.89         59934     0.003     91        %
   Operator            EkineticPW          0.62612        59934     1e-05     0.32      %
   Operator            VeffPW              178.8          59934     0.003     91        %
   PW_Basis_K          recip2real          92.534         78230     0.0012    47        %
   PW_Basis_K          gathers_scatterp    6.2523         78230     8e-05     3.2       %
   PW_Basis_K          real2recip          81.429         74830     0.0011    41        %
   PW_Basis_K          gatherp_scatters    1.9433         74830     2.6e-05   0.98      %
   DiagoIterAssist     LAPACK_subspace     0.20931        1064      0.0002    0.11      %
   DiagoCG             diag_once           150.55         1064      0.14      76        %
   ElecStatePW         psiToRho            4.4444         8         0.56      2.3       %
 ----------------------------------------------------------------------------------------

 START  Time  : Wed Dec 28 12:18:12 2022
 FINISH Time  : Wed Dec 28 12:21:29 2022
 TOTAL  Time  : 2e+02
 SEE INFORMATION IN : OUT.blpstest/
