                                                                                     
                             WELCOME TO ABACUS v3.0                                  
                                                                                     
               'Atomic-orbital Based Ab-initio Computation at UStc'                  
                                                                                     
                     Website: http://abacus.ustc.edu.cn/                             
                                                                                     
    Version: Parallel, in development
    Processor Number is 1
    Start Time is Mon May 15 13:19:06 2023
                                                                                     
 ------------------------------------------------------------------------------------

 READING GENERAL INFORMATION
                           global_out_dir = OUT.oftest/
                           global_in_card = INPUT
                               pseudo_dir = 
                              orbital_dir = 
                                    DRANK = 1
                                    DSIZE = 1
                                   DCOLOR = 1
                                    GRANK = 1
                                    GSIZE = 1
 The esolver type has been set to : ofdft




 >>>>>>>>>>>>>>>>>>>>>>>>>>>>>>>>>>>>>>>>>>>>>>>>>>>>>>>>>>>>>>>>>>>>>>
 |                                                                    |
 | Reading atom information in unitcell:                              |
 | From the input file and the structure file we know the number of   |
 | different elments in this unitcell, then we list the detail        |
 | information for each element, especially the zeta and polar atomic |
 | orbital number for each element. The total atom number is counted. |
 | We calculate the nearest atom distance for each atom and show the  |
 | Cartesian and Direct coordinates for each atom. We list the file   |
 | address for atomic orbitals. The volume and the lattice vectors    |
 | in real and reciprocal space is also shown.                        |
 |                                                                    |
 <<<<<<<<<<<<<<<<<<<<<<<<<<<<<<<<<<<<<<<<<<<<<<<<<<<<<<<<<<<<<<<<<<<<<<




 READING UNITCELL INFORMATION
                                    ntype = 2
                 atom label for species 1 = Mg
                 atom label for species 2 = Al
                  lattice constant (Bohr) = 1.88973
              lattice constant (Angstrom) = 1

 READING ATOM TYPE 1
                               atom label = Mg
                      L=0, number of zeta = 1
                      L=1, number of zeta = 1
                      L=2, number of zeta = 1
             number of atom for this type = 6
                      start magnetization = FALSE
                      start magnetization = FALSE
                      start magnetization = FALSE
                      start magnetization = FALSE
                      start magnetization = FALSE
                      start magnetization = FALSE

 READING ATOM TYPE 2
                               atom label = Al
                      L=0, number of zeta = 1
                      L=1, number of zeta = 1
                      L=2, number of zeta = 1
             number of atom for this type = 2
                      start magnetization = FALSE
                      start magnetization = FALSE

                        TOTAL ATOM NUMBER = 8

 DIRECT COORDINATES
         atom                   x                   y                   z                 mag                  vx                  vy                  vz
     taud_Mg1                 0.5                 0.5                   0                   0                   0                   0                   0
     taud_Mg2                 0.5                   0                0.25                   0                   0                   0                   0
     taud_Mg3                   0                 0.5                0.25                   0                   0                   0                   0
     taud_Mg4                   0                   0                 0.5                   0                   0                   0                   0
     taud_Mg5                   0                 0.5                0.75                   0                   0                   0                   0
     taud_Mg6                 0.5                   0                0.75                   0                   0                   0                   0
     taud_Al1                   0                   0                   0                   0                   0                   0                   0
     taud_Al2                 0.5                 0.5                 0.5                   0                   0                   0                   0


                          Volume (Bohr^3) = 1107.76
                             Volume (A^3) = 164.152

 Lattice vectors: (Cartesian coordinate: in unit of a_0)
              +4.3836                  +0                  +0
                   +0             +4.3836                  +0
                   +0                  +0            +8.54253
 Reciprocal vectors: (Cartesian coordinate: in unit of 2 pi/a_0)
            +0.228123                  -0                  +0
                   -0           +0.228123                  -0
                   +0                  -0           +0.117061




 >>>>>>>>>>>>>>>>>>>>>>>>>>>>>>>>>>>>>>>>>>>>>>>>>>>>>>>>>>>>>>>>>>>>>>
 |                                                                    |
 | Reading pseudopotentials files:                                    |
 | The pseudopotential file is in UPF format. The 'NC' indicates that |
 | the type of pseudopotential is 'norm conserving'. Functional of    |
 | exchange and correlation is decided by 4 given parameters in UPF   |
 | file.  We also read in the 'core correction' if there exists.      |
 | Also we can read the valence electrons number and the maximal      |
 | angular momentum used in this pseudopotential. We also read in the |
 | trail wave function, trail atomic density and local-pseudopotential|
 | on logrithmic grid. The non-local pseudopotential projector is also|
 | read in if there is any.                                           |
 |                                                                    |
 <<<<<<<<<<<<<<<<<<<<<<<<<<<<<<<<<<<<<<<<<<<<<<<<<<<<<<<<<<<<<<<<<<<<<<




                PAO radial cut off (Bohr) = 16

 Read in pseudopotential file is mg.gga.psp
                     pseudopotential type = 
          exchange-correlation functional = XC_GGA_X_PBE+XC_GGA_C_PBE
                 nonlocal core correction = 0
                        valence electrons = 2
                                     lmax = 0
                           number of zeta = 0
                     number of projectors = 0
                PAO radial cut off (Bohr) = 16

 Read in pseudopotential file is al.gga.psp
                     pseudopotential type = 
          exchange-correlation functional = XC_GGA_X_PBE+XC_GGA_C_PBE
                 nonlocal core correction = 0
                        valence electrons = 3
                                     lmax = 0
                           number of zeta = 0
                     number of projectors = 0
Notice: symbol 'mg_locpsp' is not an element symbol!!!! set the covalent radius to be 0.
Notice: symbol 'al_locpsp' is not an element symbol!!!! set the covalent radius to be 0.
     initial pseudo atomic orbital number = 0
                                   NLOCAL = 72




 >>>>>>>>>>>>>>>>>>>>>>>>>>>>>>>>>>>>>>>>>>>>>>>>>>>>>>>>>>>>>>>>>>>>>>
 |                                                                    |
 | Setup plane waves of charge/potential:                             |
 | Use the energy cutoff and the lattice vectors to generate the      |
 | dimensions of FFT grid. The number of FFT grid on each processor   |
 | is 'nrxx'. The number of plane wave basis in reciprocal space is   |
 | different for charege/potential and wave functions. We also set    |
 | the 'sticks' for the parallel of FFT. The number of plane waves    |
 | is 'npw' in each processor.                                        |
 <<<<<<<<<<<<<<<<<<<<<<<<<<<<<<<<<<<<<<<<<<<<<<<<<<<<<<<<<<<<<<<<<<<<<<





 SETUP THE PLANE WAVE BASIS
 energy cutoff for charge/potential (unit:Ry) = 235.196
          [fft grid for charge/potential] = 45, 45, 80
                      [fft grid division] = 1, 1, 1
      [big fft grid for charge/potential] = 45, 45, 80
                                     nbxx = 162000
                                     nrxx = 162000

 SETUP PLANE WAVES FOR CHARGE/POTENTIAL
                    number of plane waves = 162000
                         number of sticks = 2025

 PARALLEL PW FOR CHARGE/POTENTIAL
     PROC   COLUMNS(POT)             PW
        1           2025         162000
 --------------- sum -------------------
        1           2025         162000
                            number of |g| = 9635
                                  max |g| = 72.3002
                                  min |g| = 0

 SETUP THE ELECTRONS NUMBER
            electron number of element Mg = 2
      total electron number of element Mg = 12
            electron number of element Al = 3
      total electron number of element Al = 6
            AUTOSET number of electrons:  = 18
 DONE : SETUP UNITCELL Time : 0.639384 (SEC)





 >>>>>>>>>>>>>>>>>>>>>>>>>>>>>>>>>>>>>>>>>>>>>>>>>>>>>>>>>>>>>>>>>>>>>>
 |                                                                    |
 | Doing symmetry analysis:                                           |
 | We calculate the norm of 3 vectors and the angles between them,    |
 | the type of Bravais lattice is given. We can judge if the unticell |
 | is a primitive cell. Finally we give the point group operation for |
 | this unitcell. We we use the point group operations to do symmetry |
 | analysis on given k-point mesh and the charge density.             |
 |                                                                    |
 <<<<<<<<<<<<<<<<<<<<<<<<<<<<<<<<<<<<<<<<<<<<<<<<<<<<<<<<<<<<<<<<<<<<<<




 LATTICE VECTORS: (CARTESIAN COORDINATE: IN UNIT OF A0)
              +4.3836                  +0                  +0
                   +0             +4.3836                  +0
                   +0                  +0            +8.54253
                       right hand lattice = 1
                                   NORM_A = 4.3836
                                   NORM_B = 4.3836
                                   NORM_C = 8.54253
                           ALPHA (DEGREE) = 90
                           BETA  (DEGREE) = 90
                           GAMMA (DEGREE) = 90
                             BRAVAIS TYPE = 5
                     BRAVAIS LATTICE NAME = 05. Tetrogonal P (simple)
                                    IBRAV = 5
                                  BRAVAIS = SIMPLE TETROGONAL CELL
                       LATTICE CONSTANT A = 4.3836
                                C/A RATIO = 1.94875
                                    ibrav = 5
                        ROTATION MATRICES = 16
              PURE POINT GROUP OPERATIONS = 16
                   SPACE GROUP OPERATIONS = 16
                              POINT GROUP = D_4h
Warning : If the optimal symmetric configuration is not the input configuration, 
you have to manually change configurations, ABACUS would only calculate the input structure.
 DONE : SYMMETRY Time : 0.750765 (SEC)





 >>>>>>>>>>>>>>>>>>>>>>>>>>>>>>>>>>>>>>>>>>>>>>>>>>>>>>>>>>>>>>>>>>>>>>
 |                                                                    |
 | Setup K-points                                                     |
 | We setup the k-points according to input parameters.               |
 | The reduced k-points are set according to symmetry operations.     |
 | We treat the spin as another set of k-points.                      |
 |                                                                    |
 <<<<<<<<<<<<<<<<<<<<<<<<<<<<<<<<<<<<<<<<<<<<<<<<<<<<<<<<<<<<<<<<<<<<<<





 SETUP K-POINTS
                                    nspin = 1
                   Input type of k points = Monkhorst-Pack(Gamma)
                                   nkstot = 1
                               nkstot_ibz = 1
      IBZ             DirectX             DirectY             DirectZ              Weight    ibz2bz
        1                   0                   0                   0                   1         0
                               nkstot now = 1

  KPOINTS            DIRECT_X            DIRECT_Y            DIRECT_Z              WEIGHT
        1                   0                   0                   0                   1

           k-point number in this process = 1
       minimum distributed K point number = 1

  KPOINTS         CARTESIAN_X         CARTESIAN_Y         CARTESIAN_Z              WEIGHT
        1                   0                   0                   0                   2

  KPOINTS            DIRECT_X            DIRECT_Y            DIRECT_Z              WEIGHT
        1                   0                   0                   0                   2
 DONE : INIT K-POINTS Time : 0.751027 (SEC)

 DONE : INIT BASIS Time : 1.81356 (SEC)

 DONE : INIT PHI Time : 1.81363 (SEC)


 SETUP NONLOCAL PSEUDOPOTENTIALS IN PLANE WAVE BASIS
 Mg non-local projectors:
 Al non-local projectors:
      TOTAL NUMBER OF NONLOCAL PROJECTORS = 0

 nhm = 0, not allocate some matrix. DONE : LOCAL POTENTIAL Time : 4.10842 (SEC)


 Init Non-Local PseudoPotential table : 
 Init Non-Local-Pseudopotential done.
 DONE : NON-LOCAL POTENTIAL Time : 4.10851 (SEC)

Successful completion of Potential's registration : local
Successful completion of Potential's registration : hartree
Successful completion of Potential's registration : xc
                                 init_chg = atomic
 DONE : INIT POTENTIAL Time : 7.25154 (SEC)

 DONE : INIT OPTIMIZATION Time : 7.25317 (SEC)

 DONE : INIT KEDF Time : 7.26728 (SEC)


 charge density convergence is achieved
 final etot is -259.172 eV



 ><><><><><><><><><><><><><><><><><><><><><><

    TOTAL-FORCE (eV/Angstrom)

 ><><><><><><><><><><><><><><><><><><><><><><

     atom              x              y              z
      Mg1              0              0              0
      Mg2              0              0              0
      Mg3              0              0              0
      Mg4              0              0              0
      Mg5              0              0              0
      Mg6              0              0              0
      Al1              0              0              0
      Al2              0              0              0


 ><><><><><><><><><><><><><><><><><><><><><><

 TOTAL-STRESS (KBAR)

 ><><><><><><><><><><><><><><><><><><><><><><

      -18.455506      +0.000000      +0.000000
       +0.000000     -18.455506      +0.000000
       +0.000000      +0.000000     -15.385010
 TOTAL-PRESSURE: -17.432007 KBAR


 --------------------------------------------
 !FINAL_ETOT_IS -259.1715968662263663 eV
 --------------------------------------------






  |CLASS_NAME---------|NAME---------------|TIME(Sec)-----|CALLS----|AVG------|PER%-------
                                      total     +292.89187        21    +13.95   +100.00%
                 Driver         driver_line     +292.88151         1   +292.88   +100.00%
               PW_Basis      setuptransform       +0.56785         1     +0.57     +0.19%
               PW_Basis  setup_struc_factor       +1.06233         1     +1.06     +0.36%
              ppcell_vl           init_vloc       +2.29435         1     +2.29     +0.78%
                 Charge          atomic_rho       +2.48301         1     +2.48     +0.85%
               PW_Basis          recip2real      +82.59723      2542     +0.03    +28.20%
               PW_Basis    gathers_scatterp      +13.13714      2542     +0.01     +4.49%
              Potential            init_pot       +0.64599         1     +0.65     +0.22%
              Potential  update_from_charge     +164.59624       195     +0.84    +56.20%
              Potential           cal_v_eff     +164.55835       195     +0.84    +56.18%
           H_Hartree_pw           v_hartree      +17.18222       195     +0.09     +5.87%
               PW_Basis          real2recip      +80.66879      2537     +0.03    +27.54%
               PW_Basis    gatherp_scatters       +9.43155      2537     +0.00     +3.22%
                  PotXC           cal_v_eff     +146.44666       195     +0.75    +50.00%
          XC_Functional                v_xc     +139.18234        98     +1.42    +47.52%
          XC_Functional          v_xc_libxc     +145.04098       195     +0.74    +49.52%
             ESolver_OF                 Run     +277.27348         1   +277.27    +94.67%
               KEDF_LKT       LKT_potential      +90.50686       194     +0.47    +30.90%
                KEDF_vW        vw_potential      +15.31043       194     +0.08     +5.23%
                 Forces       cal_force_loc       +0.80294         1     +0.80     +0.27%
                 Forces        cal_force_ew       +0.84573         1     +0.85     +0.29%
           OF_Stress_PW          cal_stress       +6.20857         1     +6.21     +2.12%
            Stress_Func          stress_ewa       +1.18365         1     +1.18     +0.40%
            Stress_Func          stress_gga       +0.66370         1     +0.66     +0.23%
            Stress_Func          stress_loc       +4.33621         1     +4.34     +1.48%
 ----------------------------------------------------------------------------------------

 CLASS_NAME---------|NAME---------------|MEMORY(MB)--------
                                         +17.3452
             PW_Basis           struc_fac        +4.9438
               Charge                 rho        +1.2360
               Charge            rho_save        +1.2360
               Charge                rhog        +1.2360
               Charge           rhog_save        +1.2360
               Charge               kin_r        +1.2360
               Charge          kin_r_save        +1.2360
               Charge            rho_core        +1.2360
               Charge           rhog_core        +1.2360
            Potential   v_effective_fixed        +1.2360
            Potential              vr_eff        +1.2360
 ----------------------------------------------------------

 Start  Time  : Mon May 15 13:19:06 2023
 Finish Time  : Mon May 15 13:23:59 2023
 Total  Time  : 0 h 4 mins 53 secs 
