 *********************************************************
 *                                                       *
 *                  WELCOME TO ABACUS v3.0               *
 *                                                       *
 *            'Atomic-orbital Based Ab-initio            *
 *                  Computation at UStc'                 *
 *                                                       *
 *          Website: http://abacus.ustc.edu.cn/          *
 *                                                       *
 *********************************************************
 Tue May  2 12:47:56 2023
 MAKE THE DIR         : OUT.blpstest/
Notice: symbol 'Li_locpsp' is not an element symbol!!!! set the covalent radius to be 0.
 UNIFORM GRID DIM     : 24 * 24 * 24
 UNIFORM GRID DIM(BIG): 24 * 24 * 24
func,idXC_GGA_X_PBE 101
func,idXC_GGA_C_PBE 130
 DONE(0.121267   SEC) : SETUP UNITCELL
 DONE(0.17481    SEC) : SYMMETRY
 DONE(0.175087   SEC) : INIT K-POINTS
 ---------------------------------------------------------
 Self-consistent calculations for electrons
 ---------------------------------------------------------
 SPIN    KPOINTS         PROCESSORS  
 1       1               1           
 ---------------------------------------------------------
 Use plane wave basis
 ---------------------------------------------------------
 ELEMENT NATOM       XC          
 Li      1           
 ---------------------------------------------------------
 Initial plane wave basis and FFT box
 ---------------------------------------------------------
 DONE(0.17596    SEC) : INIT BASIS
 DONE(0.175999   SEC) : INIT PHI
 DONE(0.199495   SEC) : LOCAL POTENTIAL
 DONE(0.199534   SEC) : NON-LOCAL POTENTIAL
 START CHARGE      : atomic
 DONE(0.246565   SEC) : INIT POTENTIAL
 DONE(0.246607   SEC) : INIT OPTIMIZATION
Default type: double
 DONE(0.247402   SEC) : INIT KEDF
======================== Running OFDFT ========================
Iter        Etot(Ha)          Theta      PotNorm     deltaE(Ha)
0     -2.575352765779e-01   2.000e-01   9.145e-02   -2.575e-01  
1     -2.708032436460e-01   8.500e-02   3.976e-02   -1.327e-02  
2     -2.711209498467e-01   5.401e-03   6.957e-03   -3.177e-04  
3     -2.711481700502e-01   4.196e-03   7.055e-04   -2.722e-05  
4     -2.711483848155e-01   4.046e-04   6.156e-05   -2.148e-07  
5     -2.711483865886e-01   2.808e-05   1.844e-05   -1.773e-09  

  |CLASS_NAME---------|NAME---------------|TIME(Sec)-----|CALLS----|AVG------|PER%-------
                       total               6.1933         21        0.29      1e+02     %
   Driver              driver_line         6.1866         1         6.2       1e+02     %
   PW_Basis            setuptransform      0.1076         1         0.11      1.7       %
   PW_Basis            recip2real          1.1498         1711      0.00067   19        %
   PW_Basis            gathers_scatterp    0.10546        1711      6.2e-05   1.7       %
   Potential           update_from_charge  3.5038         132       0.027     57        %
   Potential           cal_v_eff           3.5021         132       0.027     57        %
   H_Hartree_pw        v_hartree           0.27934        132       0.0021    4.5       %
   PW_Basis            real2recip          1.2396         1711      0.00072   20        %
   PW_Basis            gatherp_scatters    0.11034        1711      6.4e-05   1.8       %
   PotXC               cal_v_eff           3.2012         132       0.024     52        %
   XC_Functional       v_xc                2.9756         66        0.045     48        %
   XC_Functional       v_xc_libxc          3.1485         132       0.024     51        %
   ESolver_OF          Run                 5.9442         1         5.9       96        %
   KEDF_LKT            LKT_potential       2.0383         131       0.016     33        %
   KEDF_vW             vw_potential        0.25278        131       0.0019    4.1       %
 ----------------------------------------------------------------------------------------

 START  Time  : Tue May  2 12:47:56 2023
 FINISH Time  : Tue May  2 12:48:03 2023
 TOTAL  Time  : 7
 SEE INFORMATION IN : OUT.blpstest/
