                                                                                     
                             WELCOME TO ABACUS                                       
                                                                                     
               'Atomic-orbital Based Ab-initio Computation at UStc'                  
                                                                                     
                     Website: http://abacus.ustc.edu.cn/                             
                                                                                     
    Version: Parallel, in development
    Processor Number is 1
    Start Time is Sat Aug  7 21:52:24 2021
                                                                                     
 ------------------------------------------------------------------------------------

 READING GENERAL INFORMATION
                           global_out_dir = OUT.stack/
                           global_in_card = INPUT
                               pseudo_dir = ./
                              pseudo_type = blps
                                    DRANK = 1
                                    DSIZE = 1
                                   DCOLOR = 1
                                    GRANK = 1
                                    GSIZE = 1




 >>>>>>>>>>>>>>>>>>>>>>>>>>>>>>>>>>>>>>>>>>>>>>>>>>>>>>>>>>>>>>>>>>>>>>
 |                                                                    |
 | Reading atom information in unitcell:                              |
 | From the input file and the structure file we know the number of   |
 | different elments in this unitcell, then we list the detail        |
 | information for each element, especially the zeta and polar atomic |
 | orbital number for each element. The total atom number is counted. |
 | We calculate the nearest atom distance for each atom and show the  |
 | Cartesian and Direct coordinates for each atom. We list the file   |
 | address for atomic orbitals. The volume and the lattice vectors    |
 | in real and reciprocal space is also shown.                        |
 |                                                                    |
 <<<<<<<<<<<<<<<<<<<<<<<<<<<<<<<<<<<<<<<<<<<<<<<<<<<<<<<<<<<<<<<<<<<<<<




 READING UNITCELL INFORMATION
                                    ntype = 1
                 atom label for species 1 = Al
                  lattice constant (Bohr) = 7.50241
              lattice constant (Angstrom) = 3.9701

 READING ATOM TYPE 1
                               atom label = Al
                      start magnetization = FALSE
                      L=0, number of zeta = 1
                      L=1, number of zeta = 1
                      L=2, number of zeta = 1
             number of atom for this type = 20

                        TOTAL ATOM NUMBER = 20

 DIRECT COORDINATES
         atom                   x                   y                   z                 mag
     taud_Al1                   0                   0                   0                   0
     taud_Al2            0.333333            0.333333                0.05                   0
     taud_Al3            0.666667            0.666667                 0.1                   0
     taud_Al4                   0                   0                0.15                   0
     taud_Al5            0.333333            0.333333                 0.2                   0
     taud_Al6                   0                   0                0.25                   0
     taud_Al7            0.333333            0.333333                 0.3                   0
     taud_Al8            0.666667            0.666667                0.35                   0
     taud_Al9                   0                   0                 0.4                   0
    taud_Al10            0.333333            0.333333                0.45                   0
    taud_Al11                   0                   0                 0.5                   0
    taud_Al12            0.666667            0.666667                0.55                   0
    taud_Al13            0.333333            0.333333                 0.6                   0
    taud_Al14                   0                   0                0.65                   0
    taud_Al15            0.333333            0.333333                 0.7                   0
    taud_Al16                   0                   0                0.75                   0
    taud_Al17            0.666667            0.666667                 0.8                   0
    taud_Al18            0.333333            0.333333                0.85                   0
    taud_Al19                   0                   0                 0.9                   0
    taud_Al20            0.666667            0.666667                0.95                   0


                          Volume (Bohr^3) = 2111.41
                             Volume (A^3) = 312.878

 Lattice vectors: (Cartesian coordinate: in unit of a_0)
            +0.707107                  +0                  +0
            +0.353553           +0.612372                  +0
                   +0                  +0             +11.547
 Reciprocal vectors: (Cartesian coordinate: in unit of 2 pi/a_0)
             +1.41421           -0.816497                  +0
                   -0            +1.63299                  -0
                   +0                  -0          +0.0866025




 >>>>>>>>>>>>>>>>>>>>>>>>>>>>>>>>>>>>>>>>>>>>>>>>>>>>>>>>>>>>>>>>>>>>>>
 |                                                                    |
 | Reading pseudopotentials files:                                    |
 | The pseudopotential file is in UPF format. The 'NC' indicates that |
 | the type of pseudopotential is 'norm conserving'. Functional of    |
 | exchange and correlation is decided by 4 given parameters in UPF   |
 | file.  We also read in the 'core correction' if there exists.      |
 | Also we can read the valence electrons number and the maximal      |
 | angular momentum used in this pseudopotential. We also read in the |
 | trail wave function, trail atomic density and local-pseudopotential|
 | on logrithmic grid. The non-local pseudopotential projector is also|
 | read in if there is any.                                           |
 |                                                                    |
 <<<<<<<<<<<<<<<<<<<<<<<<<<<<<<<<<<<<<<<<<<<<<<<<<<<<<<<<<<<<<<<<<<<<<<




                PAO radial cut off (Bohr) = 16

 Read in pseudopotential file is al.lda.lps
                     pseudopotential type = 
                            functional Ex = LDA
                            functional Ec = LDA
                          functional GCEx = NOGX
                          functional GCEc = NOGC
                 nonlocal core correction = 0
                        valence electrons = 3
                                     lmax = 0
                           number of zeta = 0
                     number of projectors = 0
     initial pseudo atomic orbital number = 0
                                   NLOCAL = 180

 SETUP THE ELECTRONS NUMBER
            electron number of element Al = 3
      total electron number of element Al = 60
                           occupied bands = 30
                                   NBANDS = 60
 DONE : SETUP UNITCELL Time : 0.0131869 (SEC)





 >>>>>>>>>>>>>>>>>>>>>>>>>>>>>>>>>>>>>>>>>>>>>>>>>>>>>>>>>>>>>>>>>>>>>>
 |                                                                    |
 | Doing symmetry analysis:                                           |
 | We calculate the norm of 3 vectors and the angles between them,    |
 | the type of Bravais lattice is given. We can judge if the unticell |
 | is a primitive cell. Finally we give the point group operation for |
 | this unitcell. We we use the point group operations to do symmetry |
 | analysis on given k-point mesh and the charge density.             |
 |                                                                    |
 <<<<<<<<<<<<<<<<<<<<<<<<<<<<<<<<<<<<<<<<<<<<<<<<<<<<<<<<<<<<<<<<<<<<<<




 LATTICE VECTORS: (CARTESIAN COORDINATE: IN UNIT OF A0)
            +0.707107                  +0                  +0
            +0.353553           +0.612372                  +0
                   +0                  +0             +11.547
                       right hand lattice = 1
                                   NORM_A = 0.707107
                                   NORM_B = 0.707107
                                   NORM_C = 11.547
                           ALPHA (DEGREE) = 60
                           BETA  (DEGREE) = 90
                           GAMMA (DEGREE) = 90
                             BRAVAIS TYPE = 4
                     BRAVAIS LATTICE NAME = 04. Hexagonal cell
 STANDARD LATTICE VECTORS: (CARTESIAN COORDINATE: IN UNIT OF A0)
            +0.707107                  +0                  +0
            +0.353553           +0.612372                  +0
                   +0                  +0             +11.547
                                    IBRAV = 4
                                  BRAVAIS = HEXAGONAL CELL
                       LATTICE CONSTANT A = 34.7347
                                C/A RATIO = 0.667046
                                    ibrav = 4
                        ROTATION MATRICES = 24
              PURE POINT GROUP OPERATIONS = 2
                   SPACE GROUP OPERATIONS = 2
                                       C2 = 0
                                       C3 = 0
                                       C4 = 0
                                       C6 = 0
                                       S1 = 1
                                       S3 = 0
                                       S4 = 0
                                       S6 = 0
                              POINT GROUP = C_1h
 DONE : SYMMETRY Time : 0.0778379 (SEC)





 >>>>>>>>>>>>>>>>>>>>>>>>>>>>>>>>>>>>>>>>>>>>>>>>>>>>>>>>>>>>>>>>>>>>>>
 |                                                                    |
 | Setup K-points                                                     |
 | We setup the k-points according to input parameters.               |
 | The reduced k-points are set according to symmetry operations.     |
 | We treat the spin as another set of k-points.                      |
 |                                                                    |
 <<<<<<<<<<<<<<<<<<<<<<<<<<<<<<<<<<<<<<<<<<<<<<<<<<<<<<<<<<<<<<<<<<<<<<





 SETUP K-POINTS
                                    nspin = 1
                   Input type of k points = Monkhorst-Pack(Gamma)
                                   nkstot = 100
                               nkstot_ibz = 31
      IBZ             DirectX             DirectY             DirectZ              Weight    ibz2bz
        1                   0                   0                   0                0.01         0
        2                   0                 0.9                   0                0.04         1
        3                 0.8                   0                   0                0.04         2
        4                   0                 0.7                   0                0.04         3
        5                 0.6                   0                   0                0.04         4
        6                   0                 0.5                   0                0.02         5
        7                 0.9                 0.9                   0                0.02        11
        8                 0.9                 0.8                   0                0.04        12
        9                 0.9                 0.7                   0                0.04        13
       10                 0.9                 0.6                   0                0.04        14
       11                 0.9                 0.5                   0                0.04        15
       12                 0.9                 0.4                   0                0.04        16
       13                 0.9                 0.3                   0                0.04        17
       14                 0.9                 0.2                   0                0.04        18
       15                 0.9                 0.1                   0                0.02        19
       16                 0.8                 0.8                   0                0.02        22
       17                 0.8                 0.7                   0                0.04        23
       18                 0.8                 0.6                   0                0.04        24
       19                 0.8                 0.5                   0                0.04        25
       20                 0.8                 0.4                   0                0.04        26
       21                 0.8                 0.3                   0                0.04        27
       22                 0.2                 0.8                   0                0.02        28
       23                 0.7                 0.7                   0                0.02        33
       24                 0.7                 0.6                   0                0.04        34
       25                 0.7                 0.5                   0                0.04        35
       26                 0.7                 0.4                   0                0.04        36
       27                 0.7                 0.3                   0                0.02        37
       28                 0.6                 0.6                   0                0.02        44
       29                 0.6                 0.5                   0                0.04        45
       30                 0.4                 0.6                   0                0.02        46
       31                 0.5                 0.5                   0                0.01        55
                               nkstot now = 31

  KPOINTS            DIRECT_X            DIRECT_Y            DIRECT_Z              WEIGHT
        1                   0                   0                   0                0.01
        2                   0                 0.9                   0                0.04
        3                 0.8                   0                   0                0.04
        4                   0                 0.7                   0                0.04
        5                 0.6                   0                   0                0.04
        6                   0                 0.5                   0                0.02
        7                 0.9                 0.9                   0                0.02
        8                 0.9                 0.8                   0                0.04
        9                 0.9                 0.7                   0                0.04
       10                 0.9                 0.6                   0                0.04
       11                 0.9                 0.5                   0                0.04
       12                 0.9                 0.4                   0                0.04
       13                 0.9                 0.3                   0                0.04
       14                 0.9                 0.2                   0                0.04
       15                 0.9                 0.1                   0                0.02
       16                 0.8                 0.8                   0                0.02
       17                 0.8                 0.7                   0                0.04
       18                 0.8                 0.6                   0                0.04
       19                 0.8                 0.5                   0                0.04
       20                 0.8                 0.4                   0                0.04
       21                 0.8                 0.3                   0                0.04
       22                 0.2                 0.8                   0                0.02
       23                 0.7                 0.7                   0                0.02
       24                 0.7                 0.6                   0                0.04
       25                 0.7                 0.5                   0                0.04
       26                 0.7                 0.4                   0                0.04
       27                 0.7                 0.3                   0                0.02
       28                 0.6                 0.6                   0                0.02
       29                 0.6                 0.5                   0                0.04
       30                 0.4                 0.6                   0                0.02
       31                 0.5                 0.5                   0                0.01

           k-point number in this process = 31
       minimum distributed K point number = 31

  KPOINTS         CARTESIAN_X         CARTESIAN_Y         CARTESIAN_Z              WEIGHT
        1                   0                   0                   0                0.02
        2                   0             1.46969                   0                0.08
        3             1.13137           -0.653197                   0                0.08
        4                   0              1.1431                   0                0.08
        5            0.848528           -0.489898                   0                0.08
        6                   0            0.816497                   0                0.04
        7             1.27279            0.734847                   0                0.04
        8             1.27279            0.571548                   0                0.08
        9             1.27279            0.408248                   0                0.08
       10             1.27279            0.244949                   0                0.08
       11             1.27279           0.0816497                   0                0.08
       12             1.27279          -0.0816497                   0                0.08
       13             1.27279           -0.244949                   0                0.08
       14             1.27279           -0.408248                   0                0.08
       15             1.27279           -0.571548                   0                0.04
       16             1.13137            0.653197                   0                0.04
       17             1.13137            0.489898                   0                0.08
       18             1.13137            0.326599                   0                0.08
       19             1.13137            0.163299                   0                0.08
       20             1.13137                   0                   0                0.08
       21             1.13137           -0.163299                   0                0.08
       22            0.282843              1.1431                   0                0.04
       23            0.989949            0.571548                   0                0.04
       24            0.989949            0.408248                   0                0.08
       25            0.989949            0.244949                   0                0.08
       26            0.989949           0.0816497                   0                0.08
       27            0.989949          -0.0816497                   0                0.04
       28            0.848528            0.489898                   0                0.04
       29            0.848528            0.326599                   0                0.08
       30            0.565685            0.653197                   0                0.04
       31            0.707107            0.408248                   0                0.02

  KPOINTS            DIRECT_X            DIRECT_Y            DIRECT_Z              WEIGHT
        1                   0                   0                   0                0.02
        2                   0                 0.9                   0                0.08
        3                 0.8                   0                   0                0.08
        4                   0                 0.7                   0                0.08
        5                 0.6                   0                   0                0.08
        6                   0                 0.5                   0                0.04
        7                 0.9                 0.9                   0                0.04
        8                 0.9                 0.8                   0                0.08
        9                 0.9                 0.7                   0                0.08
       10                 0.9                 0.6                   0                0.08
       11                 0.9                 0.5                   0                0.08
       12                 0.9                 0.4                   0                0.08
       13                 0.9                 0.3                   0                0.08
       14                 0.9                 0.2                   0                0.08
       15                 0.9                 0.1                   0                0.04
       16                 0.8                 0.8                   0                0.04
       17                 0.8                 0.7                   0                0.08
       18                 0.8                 0.6                   0                0.08
       19                 0.8                 0.5                   0                0.08
       20                 0.8                 0.4                   0                0.08
       21                 0.8                 0.3                   0                0.08
       22                 0.2                 0.8                   0                0.04
       23                 0.7                 0.7                   0                0.04
       24                 0.7                 0.6                   0                0.08
       25                 0.7                 0.5                   0                0.08
       26                 0.7                 0.4                   0                0.08
       27                 0.7                 0.3                   0                0.04
       28                 0.6                 0.6                   0                0.04
       29                 0.6                 0.5                   0                0.08
       30                 0.4                 0.6                   0                0.04
       31                 0.5                 0.5                   0                0.02
 DONE : INIT K-POINTS Time : 0.0787711 (SEC)





 >>>>>>>>>>>>>>>>>>>>>>>>>>>>>>>>>>>>>>>>>>>>>>>>>>>>>>>>>>>>>>>>>>>>>>
 |                                                                    |
 | Setup plane waves:                                                 |
 | Use the energy cutoff and the lattice vectors to generate the      |
 | dimensions of FFT grid. The number of FFT grid on each processor   |
 | is 'nrxx'. The number of plane wave basis in reciprocal space is   |
 | different for charege/potential and wave functions. We also set    |
 | the 'sticks' for the parallel of FFT.                              |
 |                                                                    |
 <<<<<<<<<<<<<<<<<<<<<<<<<<<<<<<<<<<<<<<<<<<<<<<<<<<<<<<<<<<<<<<<<<<<<<





 SETUP THE PLANE WAVE BASIS
     energy cutoff for wavefunc (unit:Ry) = 40
            [fft grid for wave functions] = 24, 24, 360
          [fft grid for charge/potential] = 24, 24, 360
                      [fft grid division] = 1, 1, 1
      [big fft grid for charge/potential] = 24, 24, 360
                                     nbxx = 207360
                                     nrxx = 207360

 SETUP PLANE WAVES FOR CHARGE/POTENTIAL
                    number of plane waves = 72445
                         number of sticks = 313

 SETUP PLANE WAVES FOR WAVE FUNCTIONS
                    number of plane waves = 15377
                         number of sticks = 109

 PARALLEL PW FOR CHARGE/POTENTIAL
     PROC   COLUMNS(POT)             PW
        1            313          72445
 --------------- sum -------------------
        1            313          72445

 PARALLEL PW FOR WAVE FUNCTIONS
     PROC     COLUMNS(W)             PW
        1            109          15377
 --------------- sum -------------------
        1            109          15377

 SETUP COORDINATES OF PLANE WAVES
              number of total plane waves = 72445

 SETUP COORDINATES OF PLANE WAVES
                            number of |g| = 3653
                                  max |g| = 228.034
                                  min |g| = 0
 DONE : INIT PLANEWAVE Time : 0.565612 (SEC)

                                     npwx = 9127

 SETUP NONLOCAL PSEUDOPOTENTIALS IN PLANE WAVE BASIS
 Al non-local projectors:
      TOTAL NUMBER OF NONLOCAL PROJECTORS = 0

 nhm = 0, not allocate some matrix. DONE : LOCAL POTENTIAL Time : 1.4277 (SEC)


 Init Non-Local PseudoPotential table : 
 Init Non-Local-Pseudopotential done.
 DONE : NON-LOCAL POTENTIAL Time : 1.42775 (SEC)

                                start_pot = atomic
 DONE : INIT POTENTIAL Time : 1.85134 (SEC)


 Make real space PAO into reciprocal space.
       max mesh points in Pseudopotential = 1601
     dq(describe PAO in reciprocal space) = 0.01
                                    max q = 764

 number of pseudo atomic orbitals for Al is 0
 DONE : INIT BASIS Time : 156.407 (SEC)

 -------------------------------------------
 RELAX CELL : 1
 RELAX IONS : 1 (in total: 1)
 ---------------------------------------------------------
 -------------------------------------------

 PW ALGORITHM --------------- ION=   1  ELEC=   1--------------------------------
  K-point    CG iter num      Time(Sec)
        1       7.883333      51.124420
        2       8.350000      42.781964
        3       8.400000      53.793248
        4       8.666667      55.552878
        5       8.466667      54.953707
        6       8.433333      54.871952
        7       8.483333      55.419465
        8       8.350000      55.028656
        9       8.616667      56.529369
       10       8.666667      57.128530
       11       8.566667      55.556013
       12       8.600000      56.381365
       13       8.300000      54.710256
       14       8.450000      56.220329
       15       8.316667      55.237900
       16       8.216667      53.746629
       17       8.350000      54.190864
       18       8.350000      54.094752
       19       8.833333      57.665254
       20       8.366667      55.300744
       21       8.333333      55.213766
       22       8.266667      54.640971
       23       8.700000      56.804510
       24       8.716667      57.315146
       25       8.383333      55.524069
       26       8.250000      54.147874
       27       8.383333      54.835566
       28       8.433333      53.946755
       29       8.583333      55.823668
       30       8.266667      54.580472
       31       8.400000      52.581432

 Density error is 1.695147570002
                          Error Threshold = 0.010000000000

       Energy                       Rydberg                            eV
   E_KohnSham              -84.816352160488            -1153.985672957246
     E_Harris              -85.169688954167            -1158.793066664331
      E_Fermi               +0.622053091979               +8.463466509432

 PW ALGORITHM --------------- ION=   1  ELEC=   2--------------------------------
  K-point    CG iter num      Time(Sec)
        1       4.250000      29.709456
        2       3.150000      23.012011
        3       3.166667      22.967072
        4       3.016667      22.393407
        5       2.833333      21.113048
        6       2.833333      21.189910
        7       3.333333      24.526827
        8       2.850000      20.989673
        9       2.816667      20.945684
       10       2.716667      20.181441
       11       2.783333      20.708409
       12       2.666667      20.060331
       13       2.700000      20.338268
       14       2.716667      20.332170
       15       2.800000      20.932323
       16       3.000000      21.861569
       17       2.583333      19.293298
       18       2.733333      20.396785
       19       2.550000      18.641309
       20       2.600000       8.181184
       21       2.550000       7.982417
       22       2.600000       8.204282
       23       2.766667       8.704353
       24       2.700000       8.612976
       25       2.600000       8.484381
       26       2.600000       8.372978
       27       2.550000       8.077383
       28       3.033333       9.376323
       29       2.716667       8.508230
       30       2.466667       7.741888
       31       2.883333       8.909380

 Density error is 10.344824134571
                          Error Threshold = 0.002825245950

       Energy                       Rydberg                            eV
   E_KohnSham              -75.150774221159            -1022.478738519275
     E_Harris              -85.212062054550            -1159.369582271461
      E_Fermi               +0.606670949614               +8.254181725820

 PW ALGORITHM --------------- ION=   1  ELEC=   3--------------------------------
  K-point    CG iter num      Time(Sec)
        1      24.283333      63.243185
        2      25.516667      67.018142
        3      25.383333      66.441871
        4      25.016667      64.313197
        5      23.966667      62.294047
        6      23.616667      60.301789
        7      24.733333      63.864278
        8      25.066667      65.007345
        9      26.133333      66.010387
       10      24.733333      63.766855
       11      24.516667      62.876506
       12      24.283333      62.753840
       13      24.250000     141.329870
       14      25.633333     152.616751
       15      25.316667     153.019464
       16      25.066667     155.962755
       17      25.766667     154.726889
       18      24.066667     144.208833
       19      24.766667     146.871502
       20      23.533333     138.985563
       21      25.316667     154.453894
       22      23.983333     145.073316
       23      23.383333     144.695617
       24      24.116667     145.068215
       25      25.633333     152.722713
       26      24.450000     147.577861
       27      24.850000     147.858351
       28      23.033333     145.608227
       29      24.266667     148.233455
       30      23.966667     138.301907
       31      22.450000      58.562459

 Density error is 3787.196675608419
                          Error Threshold = 0.002825245950

       Energy                       Rydberg                            eV
   E_KohnSham              -45.388954585128             -617.548408620966
     E_Harris             -323.388414553128            -4399.925105108659
      E_Fermi               -2.677383906124              -36.427676856788

 PW ALGORITHM --------------- ION=   1  ELEC=   4--------------------------------
  K-point    CG iter num      Time(Sec)
        1      21.333333      99.086873
        2      22.333333     131.410637
        3      22.150000     126.404446
        4      22.533333     129.798880
        5      22.033333     129.031189
        6      22.100000     126.014513
        7      22.050000     128.741679
        8      21.650000     121.129414
        9      21.650000     126.267269
       10      21.066667     123.383602
       11      22.533333     129.955048
       12      22.266667     130.531761
       13      21.550000     122.502900
       14      22.133333     130.380834
       15      21.666667     127.188150
       16      23.033333     133.610166
       17      22.200000     129.013007
       18      23.300000     132.612467
       19      21.766667     127.754141
       20      21.283333     123.940326
       21      21.333333     122.243224
       22      22.300000     129.006126
       23      22.350000     127.450873
       24      21.800000     128.054128
       25      21.283333     120.721673
       26      20.916667     122.239839
       27      21.316667     126.549546
       28      22.183333     123.162386
       29      21.766667     118.956537
       30      21.083333      55.703978
       31      21.533333      55.442611

 Density error is 9066.343202785547
                          Error Threshold = 0.002825245950

       Energy                       Rydberg                            eV
   E_KohnSham              -12.404746372690             -168.775232913418
     E_Harris             -315.221988359826            -4288.815176583303
      E_Fermi               -2.502849817268              -34.053018753097

 PW ALGORITHM --------------- ION=   1  ELEC=   5--------------------------------
  K-point    CG iter num      Time(Sec)
        1      21.716667      54.748655
        2      21.800000      55.161568
        3      21.883333      56.713126
        4      20.316667      52.234580
        5      19.833333      50.992629
        6      19.800000      49.960049
        7      21.733333      55.262669
        8      21.633333      56.191136
        9      21.333333      55.040610
       10      20.500000      52.777475
       11      19.666667      51.230246
       12      20.033333      52.299197
       13      20.550000      52.725402
       14      21.233333      54.860484
       15      21.066667     107.042528
       16      21.783333     112.796403
       17      20.650000      52.940924
       18      19.950000      50.279470
       19      19.966667      51.014460
       20      19.533333      49.208968
       21      20.416667      52.218339
       22      19.633333      49.682677
       23      20.583333      52.170943
       24      20.150000      50.842902
       25      20.600000      51.427204
       26      18.950000      47.933569
       27      19.450000      47.843988
       28      19.983333      50.191442
       29      19.783333      49.417283
       30      19.566667      49.979962
       31      18.933333      48.789485

 Density error is 7546.362483348052
                          Error Threshold = 0.002825245950

       Energy                       Rydberg                            eV
   E_KohnSham              +37.630357653345             +511.987281863399
     E_Harris             -157.736608620865            -2146.116660439688
      E_Fermi               -0.045137064529               -0.614121268586

 PW ALGORITHM --------------- ION=   1  ELEC=   6--------------------------------
  K-point    CG iter num      Time(Sec)
        1      20.833333      54.051830
        2      21.133333      53.642771
        3      21.016667      55.337779
        4      20.166667      52.871756
        5      18.866667      49.573152
        6      17.833333      45.949597
        7      20.816667      54.345438
        8      20.833333     122.240335
        9      20.516667     117.185585
       10      18.633333     106.593421
       11      18.683333      48.049125
       12      18.333333      46.603227
       13      19.000000      48.354564
       14      20.450000      53.295959
       15      20.133333      52.542166
       16      20.766667      58.361305
       17      20.500000     119.243708
       18      19.033333     113.015655
       19      18.700000     109.543784
       20      17.700000     103.526459
       21      18.283333     108.447063
       22      18.916667     112.505688
       23      20.333333     121.702490
       24      18.850000     109.623862
       25      18.516667     109.226185
       26      17.983333     105.644555
       27      17.516667     102.631963
       28      19.233333     115.651804
       29      18.350000     107.300424
       30      17.616667     110.548251
       31      17.983333     107.575512

 Density error is 6422.336269976634
                          Error Threshold = 0.002825245950

       Energy                       Rydberg                            eV
   E_KohnSham              -69.953710653383             -951.769061129309
     E_Harris             -175.391113450343            -2386.318521489101
      E_Fermi               -0.505735023578               -6.880877998824

 PW ALGORITHM --------------- ION=   1  ELEC=   7--------------------------------
  K-point    CG iter num      Time(Sec)
        1      13.400000      81.439141
        2      14.166667      89.387309
        3      14.250000      88.378640
        4      13.100000      79.492422
        5      12.250000      48.148030
        6      11.950000      31.525455
        7      14.100000      36.930563
        8      13.800000      36.470941
        9      13.116667      35.263819
       10      12.950000      34.786109
       11      12.383333      33.078854
       12      13.083333      34.656428
       13      13.300000      36.046849
       14      13.450000      36.247880
       15      14.083333      37.774613
       16      13.816667      36.127331
       17      13.633333      36.456179
       18      12.833333      34.513316
       19      13.250000      35.568864
       20      13.100000      37.487803
       21      12.483333      33.919205
       22      12.533333      33.715442
       23      13.233333      34.861045
       24      13.466667      36.323619
       25      12.916667      34.988744
       26      13.083333      35.416026
       27      13.033333      35.371642
       28      12.116667      32.351758
       29      12.933333      34.723269
       30      12.783333      34.438611
       31      12.183333      33.083913

 Density error is 4459.818034881934
                          Error Threshold = 0.002825245950

       Energy                       Rydberg                            eV
   E_KohnSham              -42.627786494570             -579.980789453602
     E_Harris             -116.575166893312            -1586.086515050001
      E_Fermi               +0.401433361614               +5.461781085238

 PW ALGORITHM --------------- ION=   1  ELEC=   8--------------------------------
  K-point    CG iter num      Time(Sec)
        1      14.166667      39.418849
        2      14.633333      40.157056
        3      14.283333      39.026832
        4      14.016667      38.086362
        5      13.216667      35.991618
        6      13.783333      37.310988
        7      13.933333      37.942097
        8      14.100000      38.414280
        9      13.266667      36.213516
       10      13.400000      36.166748
       11      13.316667      36.087763
       12      12.800000      35.086520
       13      13.666667      37.495019
       14      13.433333      36.414507
       15      13.833333      37.625236
       16      14.133333      38.393659
       17      13.500000      36.376463
       18      13.033333      35.397838
       19      13.133333      35.258910
       20      12.766667      50.983923
       21      13.166667      83.908156
       22      13.266667      79.290812
       23      13.683333      84.817160
       24      13.116667      78.978801
       25      13.300000      81.260826
       26      13.166667      79.874279
       27      12.900000      78.526098
       28      12.950000      79.221888
       29      13.300000      80.498250
       30      12.966667      79.696519
       31      13.500000      82.473699

 Density error is 2877.506855069586
                          Error Threshold = 0.002825245950

       Energy                       Rydberg                            eV
   E_KohnSham              -62.221471684275             -846.566552851795
     E_Harris             -101.886988111218            -1386.243590370827
      E_Fermi               +0.486710166479               +6.622031538642

 PW ALGORITHM --------------- ION=   1  ELEC=   9--------------------------------
  K-point    CG iter num      Time(Sec)
        1      10.833333      68.299594
        2      10.633333      67.048167
        3      11.750000      74.044345
        4      11.850000      71.437267
        5      13.533333      83.203264
        6      14.000000      82.654277
        7      10.833333      67.567027
        8      11.050000      69.013583
        9      11.733333      71.484990
       10      13.000000      78.440781
       11      13.866667      83.140196
       12      13.666667      81.342339
       13      13.283333      80.287928
       14      11.866667      72.156881
       15      10.966667      69.080740
       16      11.466667      71.628052
       17      11.716667      72.815817
       18      12.316667      75.268176
       19      13.416667      81.048090
       20      14.433333      86.957931
       21      13.566667      79.113800
       22      12.133333      74.549729
       23      12.166667      73.248803
       24      12.733333      78.492298
       25      13.233333      49.753135
       26      13.850000      36.545370
       27      13.566667      36.006656
       28      13.800000      37.091004
       29      13.966667      36.697768
       30      14.183333      38.001549
       31      14.216667      37.930058

 Density error is 779.135023646483
                          Error Threshold = 0.002825245950

       Energy                       Rydberg                            eV
   E_KohnSham              -47.704954305792             -649.059201388408
     E_Harris              -89.698755786016            -1220.414182200283
      E_Fermi               +0.576493799588               +7.843600536062

 PW ALGORITHM --------------- ION=   1  ELEC=  10--------------------------------
  K-point    CG iter num      Time(Sec)
        1      18.400000      48.340599
        2      19.833333      51.657636
        3      18.900000      49.792778
        4      19.416667      51.030013
        5      18.950000      50.188313
        6      18.133333      48.280637
        7      20.216667      52.855578
        8      18.400000      48.854675
        9      18.450000      48.960965
       10      18.500000      48.682066
       11      17.983333      47.376460
       12      18.150000      47.407338
       13      18.250000      48.471504
       14      18.533333      48.919407
       15      18.333333      48.363154
       16      18.850000      49.779036
       17      18.783333      49.050275
       18      17.366667      46.339239
       19      19.083333      50.603217
       20      17.216667      46.130729
       21      18.533333      48.831375
       22      17.450000      45.660101
       23      18.900000      49.006648
       24      17.733333      46.774054
       25      18.800000      50.013230
       26      17.383333      46.070787
       27      17.083333      44.925580
       28      19.600000      51.082432
       29      17.966667      47.797215
       30      17.433333      46.223807
       31      18.766667      49.938525

 Density error is 6835.422151661099
                          Error Threshold = 0.002825245950

       Energy                       Rydberg                            eV
   E_KohnSham              -24.898100750315             -338.756039582361
     E_Harris             -175.620107840630            -2389.434150007045
      E_Fermi               -0.267151324136               -3.634780236490

 PW ALGORITHM --------------- ION=   1  ELEC=  11--------------------------------
  K-point    CG iter num      Time(Sec)
        1      17.366667      46.660016
        2      19.283333      51.060946
        3      17.766667      47.401501
        4      17.350000      46.032268
        5      16.483333      43.988626
        6      15.650000      41.959746
        7      19.166667      51.431510
        8      18.116667      48.022972
        9      17.566667      47.355607
       10      15.716667      42.032693
       11      15.416667      41.273406
       12      16.066667      42.796948
       13      16.116667      42.769336
       14      17.700000      46.318548
       15      18.433333      49.368807
       16      17.916667      47.682979
       17      17.516667      47.048253
       18      16.416667      43.928211
       19      15.933333      42.012470
       20      15.366667      41.073320
       21      15.616667      41.377952
       22      16.433333      44.679815
       23      17.433333      46.407802
       24      16.050000      43.223047
       25      15.866667      41.863818
       26      15.550000      41.194517
       27      15.816667      41.969745
       28      16.283333      43.834729
       29      16.216667      43.411717
       30      15.683333      41.413524
       31      15.683333      41.446153

 Density error is 5329.587481099345
                          Error Threshold = 0.002825245950

       Energy                       Rydberg                            eV
   E_KohnSham              -42.756490459667             -581.731896734104
     E_Harris             -136.220751106158            -1853.378400883547
      E_Fermi               +0.122685034960               +1.669215534783

 PW ALGORITHM --------------- ION=   1  ELEC=  12--------------------------------
  K-point    CG iter num      Time(Sec)
        1      12.750000      34.905229
        2      13.583333      37.109697
        3      13.383333      36.674684
        4      13.550000      36.345168
        5      12.816667      34.690486
        6      12.883333      34.878174
        7      13.700000      37.288720
        8      13.883333      37.719449
        9      14.133333      38.135125
       10      13.516667      36.490890
       11      12.766667      34.905723
       12      13.083333      35.495749
       13      13.450000      36.173547
       14      13.533333      36.494263
       15      13.683333      36.885092
       16      13.650000      37.248240
       17      13.683333      37.347474
       18      12.700000      35.113259
       19      13.166667      35.366558
       20      13.550000      36.403078
       21      13.133333      35.191990
       22      12.733333      34.376045
       23      13.816667      37.694522
       24      13.783333      37.217001
       25      13.566667      36.804422
       26      13.266667      35.702312
       27      13.416667      35.718661
       28      12.766667      34.784447
       29      13.566667      36.511937
       30      13.066667      35.315810
       31      12.733333      34.360859

 Density error is 286.291141994256
                          Error Threshold = 0.002825245950

       Energy                       Rydberg                            eV
   E_KohnSham              -79.627005489076            -1083.380989328716
     E_Harris              -90.182364869431            -1226.994021339285
      E_Fermi               +0.575946311227               +7.836151574773

 PW ALGORITHM --------------- ION=   1  ELEC=  13--------------------------------
  K-point    CG iter num      Time(Sec)
        1       9.916667      28.295726
        2      10.816667      30.961984
        3      10.266667      29.238941
        4      10.883333      30.672973
        5      11.650000      32.346356
        6      11.083333      30.607418
        7      10.483333      30.026986
        8       9.933333      28.623993
        9      10.566667      29.787754
       10      11.050000      30.965139
       11      11.516667      32.041305
       12      11.733333      32.605389
       13      11.083333      31.078006
       14      10.233333      28.762621
       15      10.366667      29.622045
       16      10.000000      28.316908
       17      10.383333      29.687987
       18      11.166667      31.351464
       19      11.250000      31.894354
       20      11.200000      31.645344
       21      11.266667      31.192004
       22      10.866667      30.177092
       23      11.033333      30.992267
       24      10.950000      30.948096
       25      11.100000      31.367406
       26      10.916667      30.671592
       27      10.916667      30.449990
       28      11.450000      32.243494
       29      11.733333      32.592163
       30      10.833333      30.236808
       31      11.500000      31.646855

 Density error is 1931.879418390060
                          Error Threshold = 0.002825245950

       Energy                       Rydberg                            eV
   E_KohnSham              -79.532694326686            -1082.097820135200
     E_Harris              -95.802289470801            -1303.457018248305
      E_Fermi               +0.548453700664               +7.462095418215

 PW ALGORITHM --------------- ION=   1  ELEC=  14--------------------------------
  K-point    CG iter num      Time(Sec)
        1       8.600000      25.395281
        2       8.100000      24.002455
        3       6.900000      20.764880
        4       6.283333      18.807211
        5       6.350000      18.984430
        6       5.616667      17.070900
        7       7.483333      22.194767
        8       6.833333      20.200572
        9       6.833333      20.141042
       10       6.866667      20.235750
       11       7.016667      20.213211
       12       6.916667      20.239307
       13       6.733333      20.090764
       14       6.550000      19.838686
       15       6.766667      20.421209
       16       6.750000      20.138425
       17       6.750000      20.297147
       18       6.133333      18.313457
       19       6.466667      18.863429
       20       6.083333      18.073964
       21       6.366667      18.853713
       22       6.183333      18.119513
       23       6.933333      19.992625
       24       6.850000      19.897742
       25       6.333333      18.943708
       26       6.383333      19.129074
       27       6.633333      19.527455
       28       6.616667      19.296525
       29       6.833333      19.881155
       30       6.433333      18.894492
       31       6.116667      17.989350

 Density error is 267.332182095956
                          Error Threshold = 0.002825245950

       Energy                       Rydberg                            eV
   E_KohnSham              -84.625547837061            -1151.389646955612
     E_Harris              -86.802768387706            -1181.012252247073
      E_Fermi               +0.599012014570               +8.149976568616

 PW ALGORITHM --------------- ION=   1  ELEC=  15--------------------------------
  K-point    CG iter num      Time(Sec)
        1       6.616667      19.403729
        2       6.516667      19.147942
        3       6.066667      17.997936
        4       5.983333      17.903030
        5       5.266667      15.946200
        6       5.200000      15.780207
        7       6.350000      18.850243
        8       6.333333      18.696138
        9       6.500000      19.242275
       10       6.100000      18.200728
       11       6.000000      17.824298
       12       5.650000      16.731815
       13       5.966667      17.609464
       14       6.700000      19.478711
       15       6.366667      18.743031
       16       6.316667      18.729997
       17       6.516667      19.321837
       18       6.366667      18.906327
       19       6.716667      19.434162
       20       6.083333      17.731266
       21       6.400000      18.859286
       22       6.483333      18.902324
       23       6.033333      18.014542
       24       5.683333      16.924052
       25       6.750000      19.239976
       26       7.400000      21.285679
       27       7.233333      21.140997
       28       5.183333      15.686105
       29       5.666667      16.833408
       30       5.900000      17.309949
       31       5.116667      15.622039

 Density error is 706.103159404755
                          Error Threshold = 0.002825245950

       Energy                       Rydberg                            eV
   E_KohnSham              -80.927611534824            -1101.076642404130
     E_Harris              -89.479299298837            -1217.428323511589
      E_Fermi               +0.576338680247               +7.841490029163

 PW ALGORITHM --------------- ION=   1  ELEC=  16--------------------------------
  K-point    CG iter num      Time(Sec)
        1       6.950000      20.896400
        2       7.550000      22.109745
        3       7.400000      21.536118
        4       7.050000      20.852206
        5       5.733333      17.343531
        6       5.683333      17.045288
        7       7.200000      21.486110
        8       7.133333      21.272312
        9       7.600000      21.966902
       10       7.116667      20.874398
       11       6.400000      19.166636
       12       6.516667      19.331547
       13       7.383333      21.594975
       14       7.750000      22.613511
       15       7.000000      20.794013
       16       7.450000      21.792019
       17       8.016667      23.494704
       18       7.350000      21.823777
       19       7.500000      21.890900
       20       6.616667      19.471265
       21       7.583333      21.720140
       22       7.416667      21.210311
       23       6.733333      19.971948
       24       7.200000      20.949358
       25       7.583333      21.869623
       26       7.233333      20.880696
       27       7.000000      20.094860
       28       5.750000      17.010317
       29       6.400000      18.968948
       30       6.700000      19.931765
       31       5.650000      17.010412

 Density error is 32.244136791586
                          Error Threshold = 0.002825245950

       Energy                       Rydberg                            eV
   E_KohnSham              -89.700406824197            -1220.436645727168
     E_Harris              -85.592186837846            -1164.541445275303
      E_Fermi               +0.602783278208               +8.201287242748

 PW ALGORITHM --------------- ION=   1  ELEC=  17--------------------------------
  K-point    CG iter num      Time(Sec)
        1      19.133333      50.409964
        2      20.016667      53.236349
        3      19.883333      52.986003
        4      20.066667      53.511499
        5      22.133333      58.408319
        6      20.833333      55.850511
        7      19.516667      52.459956
        8      19.033333      51.147079
        9      19.733333      52.745703
       10      19.633333      52.427314
       11      21.350000      56.858359
       12      20.616667      55.598150
       13      19.683333      52.658674
       14      20.416667      54.663632
       15      19.783333      52.289645
       16      19.366667      52.275307
       17      19.900000      53.645056
       18      19.900000      53.132914
       19      20.650000      55.195096
       20      20.250000      53.453354
       21      20.450000      54.763935
       22      20.116667      52.883083
       23      18.500000      49.048627
       24      19.116667      50.676764
       25      20.416667      54.156457
       26      19.700000      52.399754
       27      20.466667      53.659498
       28      21.166667      55.278714
       29      21.283333      55.951162
       30      19.733333      51.869583
       31      19.583333      51.431026

 Density error is 9039.051854158462
                          Error Threshold = 0.002825245950

       Energy                       Rydberg                            eV
   E_KohnSham              -50.364657090707             -685.246314249722
     E_Harris             -307.986595483650            -4190.372606198708
      E_Fermi               -2.403211589426              -32.697371115826

 PW ALGORITHM --------------- ION=   1  ELEC=  18--------------------------------
  K-point    CG iter num      Time(Sec)
        1      24.733333      62.852985
        2      23.450000      59.376533
        3      22.900000      58.325437
        4      23.466667      59.002491
        5      25.400000      65.038979
        6      25.050000      64.945285
        7      24.800000      64.465495
        8      23.850000      61.323797
        9      23.600000      61.524119
       10      24.966667      64.339756
       11      24.466667      62.545325
       12      24.400000      62.523188
       13      24.616667      63.935460
       14      23.416667      60.797780
       15      24.533333      63.597927
       16      22.716667      58.823928
       17      25.033333      64.712618
       18      22.416667      58.232739
       19      24.983333      63.738994
       20      21.416667      55.206458
       21      24.416667      62.993518
       22      21.933333      57.429678
       23      24.216667     122.232778
       24      24.900000     150.510256
       25      24.983333     153.605249
       26      23.416667     140.623003
       27      23.883333     146.584955
       28      24.033333     144.363175
       29      24.566667     150.915068
       30      21.883333     131.725292
       31      24.400000     153.111894

 Density error is 6981.659585636909
                          Error Threshold = 0.002825245950

       Energy                       Rydberg                            eV
   E_KohnSham              -69.520186108537             -945.870657096549
     E_Harris             -329.467594198606            -4482.636587452792
      E_Fermi               -2.729055501762              -37.130704982212

 PW ALGORITHM --------------- ION=   1  ELEC=  19--------------------------------
  K-point    CG iter num      Time(Sec)
        1      13.933333      84.790943
        2      14.233333      88.694820
        3      13.900000      87.435165
        4      15.183333      92.767325
        5      14.000000      88.742122
        6      13.283333      85.098694
        7      14.350000      88.486562
        8      13.800000      85.005444
        9      13.616667      77.627508
       10      13.866667      86.373203
       11      13.866667      83.989305
       12      13.916667      84.347600
       13      14.066667      86.281034
       14      14.266667      89.845402
       15      13.716667      84.989950
       16      13.966667      86.694085
       17      13.833333      85.162409
       18      14.100000      85.455562
       19      14.300000      87.283751
       20      13.216667      81.854833
       21      14.150000      85.167553
       22      14.266667      86.631261
       23      14.516667      91.161894
       24      13.900000      83.324476
       25      14.216667      86.296410
       26      14.350000      89.554269
       27      13.733333      82.631259
       28      14.283333      86.554480
       29      13.216667      81.744783
       30      13.283333      80.060251
       31      13.000000      79.530036

 Density error is 1853.058812205245
                          Error Threshold = 0.002825245950

       Energy                       Rydberg                            eV
   E_KohnSham              -61.699023925055             -839.458286419067
     E_Harris             -106.346076130224            -1446.912595312837
      E_Fermi               +0.401056253865               +5.456650271103

 PW ALGORITHM --------------- ION=   1  ELEC=  20--------------------------------
  K-point    CG iter num      Time(Sec)
        1      16.200000      96.356247
        2      17.100000     103.654184
        3      16.100000     100.305603
        4      16.533333      97.028862
        5      15.766667      85.784508
        6      14.733333      37.116822
        7      16.383333      41.796789
        8      15.633333      39.983479
        9      16.250000      41.950110
       10      15.966667      41.535809
       11      16.083333      41.693092
       12      15.900000      41.361532
       13      15.716667      41.029080
       14      16.233333      41.515426
       15      16.216667      42.371270
       16      16.800000      43.421348
       17      16.300000      41.772002
       18      16.066667      42.197329
       19      15.400000      40.095007
       20      15.866667      41.943190
       21      15.783333      41.378948
       22      15.866667      41.863280
       23      16.400000      42.838967
       24      15.683333      40.617620
       25      15.850000      40.939509
       26      15.316667      39.597182
       27      15.716667      40.837315
       28      16.033333      41.377834
       29      15.733333      41.046729
       30      15.983333      41.941016
       31      15.683333      40.941004

 Density error is 6699.415105006455
                          Error Threshold = 0.002825245950

       Energy                       Rydberg                            eV
   E_KohnSham              -30.843500068764             -419.647347198583
     E_Harris             -135.157158658603            -1838.907483247044
      E_Fermi               +0.189163343963               +2.573699330635

 PW ALGORITHM --------------- ION=   1  ELEC=  21--------------------------------
  K-point    CG iter num      Time(Sec)
        1      15.383333      40.090253
        2      15.716667      39.996233
        3      15.483333      39.604166
        4      15.216667      39.458236
        5      14.700000      38.362517
        6      14.883333      38.721345
        7      15.850000      41.731799
        8      15.133333      39.674236
        9      15.033333      39.308923
       10      14.966667      38.869585
       11      14.933333      38.565852
       12      15.033333      38.674373
       13      14.833333      37.927860
       14      14.900000      38.445097
       15      15.350000      40.119306
       16      15.116667      39.132773
       17      15.050000      38.899556
       18      14.816667      38.752814
       19      14.850000      37.960856
       20      14.416667      36.779878
       21      14.633333      36.837356
       22      15.250000      39.212458
       23      15.233333      38.797648
       24      15.083333      38.340675
       25      14.866667      37.293542
       26      15.183333      39.099128
       27      15.116667      38.078213
       28      14.883333      38.451486
       29      14.983333      38.219907
       30      14.566667      37.458511
       31      15.233333      39.448323

 Density error is 667.665875339953
                          Error Threshold = 0.002825245950

       Energy                       Rydberg                            eV
   E_KohnSham              -84.169745950185            -1145.188144134942
     E_Harris              -88.954542722676            -1210.288644012832
      E_Fermi               +0.579548934341               +7.885167776868

 PW ALGORITHM --------------- ION=   1  ELEC=  22--------------------------------
  K-point    CG iter num      Time(Sec)
        1       8.783333      24.989022
        2       8.866667      24.836171
        3       8.633333      24.493279
        4       8.100000      23.186590
        5       7.800000      21.820793
        6       7.366667      20.558105
        7       8.916667      25.280369
        8       8.316667      23.349961
        9       8.650000      23.970939
       10       8.416667      23.568964
       11       7.883333      22.145619
       12       8.000000      22.091587
       13       8.283333      23.058757
       14       8.350000      23.673584
       15       8.566667      23.792572
       16       8.733333      24.582361
       17       8.450000      24.173114
       18       7.400000      20.721439
       19       8.200000      22.425218
       20       7.733333      21.356893
       21       8.433333      23.137703
       22       7.916667      22.216139
       23       8.483333      23.861710
       24       8.283333      22.929292
       25       8.216667      22.722718
       26       7.800000      21.470353
       27       7.850000      21.785154
       28       8.483333      23.547318
       29       7.716667      21.879858
       30       7.483333      21.054169
       31       7.450000      20.780816

 Density error is 1324.694478829781
                          Error Threshold = 0.002825245950

       Energy                       Rydberg                            eV
   E_KohnSham              -96.476410230436            -1312.628901719426
     E_Harris              -93.139491327576            -1267.227790876614
      E_Fermi               +0.559488375530               +7.612229871977

 PW ALGORITHM --------------- ION=   1  ELEC=  23--------------------------------
  K-point    CG iter num      Time(Sec)
        1      16.266667      41.856913
        2      17.600000      45.820336
        3      18.500000      48.101062
        4      17.866667      46.282234
        5      18.683333      48.537542
        6      18.850000      49.496433
        7      17.500000      45.260762
        8      17.433333      45.476335
        9      17.433333      44.617375
       10      17.566667      45.411831
       11      18.283333      47.724736
       12      17.733333      45.605293
       13      17.633333      46.080096
       14      17.700000      46.356403
       15      18.000000      46.531452
       16      18.916667      48.482046
       17      17.016667      43.833431
       18      16.783333      43.710285
       19      17.716667      45.941208
       20      17.533333      45.864016
       21      17.816667      47.099287
       22      16.916667      43.789329
       23      17.400000      44.309024
       24      17.633333      45.622083
       25      17.750000      46.092845
       26      17.950000      46.832875
       27      17.883333      46.591157
       28      18.283333      47.771135
       29      18.150000      47.548420
       30      17.683333      47.042027
       31      19.083333      49.242647

 Density error is 9436.358070771317
                          Error Threshold = 0.002825245950

       Energy                       Rydberg                            eV
   E_KohnSham              +15.357592368935             +208.950763778840
     E_Harris             -221.937488768744            -3019.614447065918
      E_Fermi               -0.908518590668              -12.361029572014

 PW ALGORITHM --------------- ION=   1  ELEC=  24--------------------------------
  K-point    CG iter num      Time(Sec)
        1      20.450000      51.786774
        2      21.416667      55.049663
        3      19.766667      49.253356
        4      18.916667      48.186308
        5      18.583333      46.966320
        6      17.883333      44.730893
        7      21.000000      52.645449
        8      18.866667      47.745087
        9      19.350000      48.596029
       10      19.133333      48.198176
       11      18.316667      46.725137
       12      18.783333      47.339407
       13      19.533333      49.158851
       14      19.166667      49.109371
       15      20.016667      52.557889
       16      19.433333      50.235262
       17      19.700000      50.147436
       18      18.766667      48.691533
       19      18.300000      46.637058
       20      18.266667      46.482238
       21      18.550000      46.783736
       22      18.983333      48.339984
       23      19.033333      49.206252
       24      18.966667      48.535835
       25      18.316667      46.726570
       26      18.350000      46.590078
       27      18.516667      46.566938
       28      18.716667      47.653190
       29      18.400000      45.710005
       30      18.233333      45.272659
       31      17.883333      45.116063

 Density error is 6057.369946255599
                          Error Threshold = 0.002825245950

       Energy                       Rydberg                            eV
   E_KohnSham             +155.759365093319            +2119.214882131434
     E_Harris             -149.516398976675            -2034.274970524153
      E_Fermi               -0.094842313197               -1.290395870974

 PW ALGORITHM --------------- ION=   1  ELEC=  25--------------------------------
  K-point    CG iter num      Time(Sec)
        1      32.833333      82.257971
        2      33.616667      83.264267
        3      33.716667      84.531995
        4      34.400000      86.142288
        5      35.700000      91.521058
        6      32.350000      82.561570
        7      34.200000      85.101444
        8      32.116667      79.560232
        9      33.966667      84.773364
       10      33.316667      83.055001
       11      33.216667      84.138314
       12      33.500000      84.065051
       13      33.666667      84.815208
       14      33.283333      83.931967
       15      31.800000      79.599095
       16      33.150000      83.223710
       17      33.633333      85.419779
       18      31.966667      79.848387
       19      33.433333      82.801466
       20      31.316667      78.193840
       21      33.216667      84.260426
       22      32.350000      81.355912
       23      33.916667      85.467949
       24      33.366667      84.749633
       25      33.183333      86.293352
       26      31.333333     177.760329
       27      31.033333     184.974202
       28      35.883333     223.208613
       29      33.216667     194.565109
       30      30.833333     145.260140
       31      32.283333      82.084349

 Density error is 9999.282602374582
                          Error Threshold = 0.002825245950

       Energy                       Rydberg                            eV
   E_KohnSham              -27.190464805691             -369.945252625859
     E_Harris             -424.716094795596            -5778.558921528257
      E_Fermi               -4.075139033841              -55.445111002448

 PW ALGORITHM --------------- ION=   1  ELEC=  26--------------------------------
  K-point    CG iter num      Time(Sec)
        1      28.300000      69.775333
        2      28.633333      70.689723
        3      26.866667      67.096672
        4      26.766667      65.546571
        5      26.533333      65.268162
        6      26.666667      66.604589
        7      29.016667      71.453885
        8      27.000000      67.680698
        9      27.700000      69.854135
       10      27.950000      70.863788
       11      26.500000      67.118068
       12      25.850000      65.758623
       13      28.050000      72.122148
       14      27.416667      69.440773
       15      26.716667      66.996962
       16      27.433333      69.678707
       17      27.866667      70.258585
       18      25.583333      65.339490
       19      26.566667      67.644297
       20      26.800000      67.379859
       21      27.100000      67.639315
       22      25.933333      65.356258
       23      27.050000      68.669151
       24      27.733333      69.071219
       25      26.200000      64.447464
       26      25.666667      64.350751
       27      25.350000      63.501084
       28      26.683333      67.850037
       29      26.050000      65.874764
       30      26.716667      67.538003
       31      25.866667      64.655585

 Density error is 9430.539646383881
                          Error Threshold = 0.002825245950

       Energy                       Rydberg                            eV
   E_KohnSham             -190.697250994762            -2594.569206464929
     E_Harris             -333.574004800836            -4538.507169970720
      E_Fermi               -2.732746772756              -37.180927300597

 PW ALGORITHM --------------- ION=   1  ELEC=  27--------------------------------
  K-point    CG iter num      Time(Sec)
        1      20.616667      52.873548
        2      23.383333      59.104560
        3      23.216667      58.134003
        4      23.533333      59.276397
        5      23.433333      60.579732
        6      22.566667      57.515681
        7      23.750000      59.925580
        8      22.816667      58.548311
        9      24.083333      61.591920
       10      23.800000      60.672441
       11      24.100000      61.670337
       12      23.950000      60.749069
       13      23.950000      60.366906
       14      23.316667      59.023358
       15      22.850000      58.462181
       16      23.566667      59.289419
       17      24.016667      60.958152
       18      23.233333      59.617320
       19      23.566667      60.699484
       20      22.100000      56.836339
       21      22.466667      57.554398
       22      22.366667      57.121750
       23      24.616667      63.227990
       24      24.316667      61.318901
       25      23.066667      58.964843
       26      21.400000      56.294819
       27      22.350000      57.727361
       28      23.250000      59.986045
       29      24.316667      63.570362
       30      22.866667      58.740072
       31      22.933333      59.498493

 Density error is 10098.451485394991
                          Error Threshold = 0.002825245950

       Energy                       Rydberg                            eV
   E_KohnSham             -181.031898331241            -2463.065337061569
     E_Harris             -340.951647987554            -4638.885155120969
      E_Fermi               -2.707248834321              -36.834010050621

 PW ALGORITHM --------------- ION=   1  ELEC=  28--------------------------------
  K-point    CG iter num      Time(Sec)
        1      16.750000      43.785742
        2      17.700000      46.122375
        3      16.483333      42.715209
        4      16.133333      42.233424
        5      16.133333      43.632743
        6      15.283333      41.154237
        7      17.700000      47.206745
        8      16.666667      43.883716
        9      16.583333      43.698932
       10      16.400000      42.633247
       11      15.933333      41.289498
       12      15.083333      40.562112
       13      16.216667      42.348240
       14      16.566667      43.348699
       15      16.516667      43.585692
       16      16.716667      43.620675
       17      16.683333      44.830418
       18      15.650000      41.833412
       19      14.850000      39.965122
       20      14.966667      40.087202
       21      15.633333      41.575216
       22      16.300000      42.314569
       23      16.016667      41.215402
       24      16.450000      42.202792
       25      14.983333      38.989486
       26      14.133333      37.120073
       27      14.450000      37.369361
       28      16.100000      41.832474
       29      15.966667      48.156177
       30      15.516667      91.117799
       31      14.733333      88.720523

 Density error is 8681.783975734370
                          Error Threshold = 0.002825245950

       Energy                       Rydberg                            eV
   E_KohnSham             -302.755194374054            -4119.195742584672
     E_Harris             -241.495757849781            -3285.718349585254
      E_Fermi               -1.342151873671              -18.260913063308

 PW ALGORITHM --------------- ION=   1  ELEC=  29--------------------------------
  K-point    CG iter num      Time(Sec)
        1      41.100000     200.803393
        2      40.200000     101.650100
        3      39.966667     102.015773
        4      41.150000     103.844110
        5      39.800000     100.906588
        6      40.900000     103.447812
        7      40.666667     104.540034
        8      39.316667      98.555171
        9      42.066667     107.057120
       10      41.750000     106.262914
       11      40.800000     103.360925
       12      40.983333     103.268565
       13      42.100000     106.123905
       14      41.883333     105.780919
       15      38.516667      97.024577
       16      39.866667     102.274214
       17      42.366667     107.328060
       18      40.933333     103.072309
       19      41.900000     106.869355
       20      41.033333     103.296227
       21      41.850000     110.033466
       22      40.450000     232.259019
       23      41.316667     239.762413
       24      42.433333     244.713254
       25      42.000000     240.228878
       26      41.983333     245.114312
       27      40.750000     240.588846
       28      41.366667     247.295298
       29      40.633333     242.582507
       30      40.333333     241.539365
       31      40.983333     243.045660

 Density error is 11935.382367345197
                          Error Threshold = 0.002825245950

       Energy                       Rydberg                            eV
   E_KohnSham              -86.949194168683            -1183.004477202458
     E_Harris             -977.676182639319           -13301.966882783416
      E_Fermi              -12.621208809662             -171.720355459206

 PW ALGORITHM --------------- ION=   1  ELEC=  30--------------------------------
  K-point    CG iter num      Time(Sec)
        1      20.233333     121.219726
        2      22.000000     126.896418
        3      21.666667     128.725055
        4      20.200000     118.032388
        5      20.266667     119.347236
        6      20.066667     120.734512
        7      21.883333     127.558042
        8      21.300000     126.987170
        9      20.266667     119.500339
       10      21.416667     129.461949
       11      20.400000     120.093957
       12      20.566667     124.848084
       13      21.033333     122.709666
       14      20.833333     124.590390
       15      21.783333     128.820417
       16      21.116667     124.458030
       17      21.050000     123.355419
       18      21.000000     122.458653
       19      20.800000     125.250959
       20      20.616667     120.470068
       21      20.833333     124.487549
       22      20.700000     120.830568
       23      20.166667     122.965073
       24      21.000000     120.928468
       25      21.533333     126.246179
       26      20.583333     123.001322
       27      20.350000     120.331077
       28      20.566667     122.251787
       29      20.533333     120.458206
       30      21.150000     127.835509
       31      19.783333     116.736284

 Density error is 3560.129221007535
                          Error Threshold = 0.002825245950

       Energy                       Rydberg                            eV
   E_KohnSham             +350.806301497067            +4772.964594666046
     E_Harris             -181.395067077861            -2468.006501351115
      E_Fermi               -0.706385555983               -9.610868546265

 PW ALGORITHM --------------- ION=   1  ELEC=  31--------------------------------
  K-point    CG iter num      Time(Sec)
        1      46.150000     267.039485
        2      47.266667     276.937892
        3      47.216667     275.708407
        4      44.466667     258.931341
        5      44.700000     261.879072
        6      44.433333     261.696659
        7      47.933333     282.580968
        8      45.133333     266.409953
        9      46.050000     269.431577
       10      45.333333     264.196815
       11      44.250000     260.567192
       12      44.966667     261.903693
       13      45.250000     266.152200
       14      46.333333     273.448496
       15      44.450000     262.068744
       16      47.033333     270.625151
       17      45.566667     267.925786
       18      43.383333     267.193283
       19      45.600000     278.061608
       20      44.133333     259.442710
       21      44.516667     262.932159
       22      43.700000     152.390376
       23      45.850000     119.707047
       24      46.466667     118.858040
       25      44.766667     115.107738
       26      43.316667     110.545294
       27      43.200000     109.096640
       28      45.816667     254.158505
       29      45.083333     241.173894
       30      43.850000     150.914912
       31      43.983333     113.859090

 Density error is 11988.516876552527
                          Error Threshold = 0.002825245950

[...]
   E_KohnSham             -276.280485124609            -3758.988843898922
     E_Harris            -1391.150226169512           -18927.569849894076
      E_Fermi              -18.581301690352             -252.811579245817

 PW ALGORITHM --------------- ION=   1  ELEC=  87--------------------------------
  K-point    CG iter num      Time(Sec)
        1      52.833333     134.588051
        2      55.100000     138.926429
        3      57.366667     148.926333
        4      55.716667     140.857398
        5      56.133333     141.089797
        6      51.200000     127.946863
        7      54.916667     139.471746
        8      56.066667     141.805828
        9      55.133333     139.767056
       10      54.266667     137.651583
       11      55.716667     142.211609
       12      54.733333     138.774798
       13      55.900000     312.398472
       14      55.183333     301.550816
       15      56.883333     144.349544
       16      57.333333     145.578942
       17      54.133333     136.861786
       18      53.266667     134.919739
       19      54.233333     136.595747
       20      53.500000     134.974564
       21      55.883333     140.146485
       22      54.166667     137.385922
       23      56.550000     142.721669
       24      55.533333     139.808122
       25      54.533333     137.478077
       26      51.366667     131.141299
       27      50.866667     130.094591
       28      54.583333     138.010838
       29      54.466667     138.581919
       30      52.916667     136.159686
       31      50.833333     128.888004

 Density error is 13506.548896816474
                          Error Threshold = 0.002825245950

       Energy                       Rydberg                            eV
   E_KohnSham              -41.866392815486             -569.621496996868
     E_Harris            -2130.467312060709           -28986.494846769758
      E_Fermi              -30.102877348818             -409.570658139055

 PW ALGORITHM --------------- ION=   1  ELEC=  88--------------------------------
  K-point    CG iter num      Time(Sec)
        1      51.700000     262.987312
        2      54.350000     336.574752
        3      52.683333     329.531371
        4      51.133333     314.890049
        5      49.816667     311.866443
        6      48.000000     295.406570
        7      53.883333     304.778945
        8      51.916667     133.416223
        9      49.616667     126.792516
       10      50.400000     129.681772
       11      49.983333     127.718591
       12      48.316667     124.237101
       13      49.583333     127.320822
       14      50.166667     129.203628
       15      50.283333     129.501639
       16      53.283333     137.390857
       17      50.800000     131.762615
       18      49.466667     125.783888
       19      49.450000     127.462364
       20      47.600000     119.827610
       21      50.833333     130.016623
       22      49.333333     126.093981
       23      51.166667     130.251125
       24      49.150000     125.472038
       25      49.766667     125.646436
       26      46.266667     117.558807
       27      46.266667     116.560110
       28      50.300000     125.547771
       29      49.733333     126.443722
       30      47.116667     119.631684
       31      48.250000     122.472345

 Density error is 12815.112356978550
                          Error Threshold = 0.002825245950

       Energy                       Rydberg                            eV
   E_KohnSham            +1931.579210700622           +26280.483403871025
     E_Harris            -1338.816438236702           -18215.532136084214
      E_Fermi              -17.822183877927             -242.483251543539

 PW ALGORITHM --------------- ION=   1  ELEC=  89--------------------------------
  K-point    CG iter num      Time(Sec)
        1      65.100000     168.142470
        2      68.283333     177.136245
        3      61.666667     157.667635
        4      61.733333     158.438493
        5      61.683333     156.981823
        6      60.466667     155.887223
        7      66.216667     170.906784
        8      67.416667     174.720123
        9      61.766667     158.078636
       10      60.583333     154.558552
       11      60.183333     153.706879
       12      62.166667     159.150424
       13      62.450000     157.907376
       14      62.350000     158.733699
       15      65.266667     167.006711
       16      68.100000     176.006561
       17      62.800000     159.877130
       18      59.450000     152.024080
       19      61.983333     157.412104
       20      59.183333     150.112042
       21      60.466667     154.124991
       22      60.050000     153.352432
       23      62.150000     159.149665
       24      61.066667     154.921637
       25      60.250000     154.872183
       26      57.783333     147.613729
       27      59.183333     151.946994
       28      62.100000     157.931245
       29      60.266667     153.375354
       30      58.866667     149.693394
       31      60.316667     154.095096

 Density error is 14629.755957253035
                          Error Threshold = 0.002825245950

       Energy                       Rydberg                            eV
   E_KohnSham              +67.237859825737             +914.818014955312
     E_Harris            -3368.347602332123           -45828.720236354959
      E_Fermi              -48.416449067898             -658.739584250207

 PW ALGORITHM --------------- ION=   1  ELEC=  90--------------------------------
  K-point    CG iter num      Time(Sec)
        1      51.283333     131.355765
        2      52.316667     133.316581
        3      52.366667     134.795740
        4      49.366667     125.892583
        5      47.300000     119.668956
        6      46.050000     118.453655
        7      50.850000     129.784713
        8      49.783333     128.311372
        9      47.950000     121.431071
       10      48.083333     123.234523
       11      48.883333     125.443900
       12      48.383333     122.531948
       13      48.016667     123.120238
       14      48.833333     124.269840
       15      50.683333     129.497071
       16      51.200000     130.821690
       17      49.583333     126.009098
       18      47.583333     122.366401
       19      48.400000     123.026666
       20      46.866667     119.370756
       21      48.666667     124.274152
       22      47.683333     120.931383
       23      48.666667     123.532255
       24      48.150000     121.618501
       25      48.300000     122.087714
       26      46.133333     118.863152
       27      45.150000     114.244679
       28      48.666667     123.916072
       29      48.300000     122.904538
       30      46.600000     119.408792
       31      46.366667     118.888696

 Density error is 12463.860846174161
                          Error Threshold = 0.002825245950

       Energy                       Rydberg                            eV
   E_KohnSham             -357.833885769337            -4868.579783944091
     E_Harris            -1113.096215449109           -15144.450952343517
      E_Fermi              -14.029255882444             -190.877818701262

 PW ALGORITHM --------------- ION=   1  ELEC=  91--------------------------------
  K-point    CG iter num      Time(Sec)
        1      45.416667     116.877172
        2      45.450000     113.930795
        3      45.450000     115.230493
        4      49.083333     123.522793
        5      43.583333     110.880190
        6      44.133333     113.442182
        7      44.766667     113.429650
        8      43.800000     109.890095
        9      47.016667     120.253122
       10      45.816667     115.030190
       11      45.933333     115.222396
       12      45.700000     116.047683
       13      45.850000     114.973144
       14      46.450000     118.159626
       15      43.750000     135.805367
       16      46.116667     267.309704
       17      46.033333     267.827301
       18      44.200000     257.948055
       19      46.350000     267.090352
       20      43.950000     254.752651
       21      45.416667     247.702362
       22      43.966667     253.979444
       23      47.416667     275.794249
       24      45.866667     266.791507
       25      46.416667     261.965648
       26      44.133333     253.457572
       27      44.350000     259.399461
       28      42.216667     247.690215
       29      45.950000     262.833460
       30      42.733333     254.997245
       31      43.450000     240.826651

 Density error is 11404.971684775832
                          Error Threshold = 0.002825245950

       Energy                       Rydberg                            eV
   E_KohnSham             +606.495846529045            +8251.799326128528
     E_Harris            -1449.993364520421           -19728.171819668762
      E_Fermi              -19.549920532367             -265.990314687391

 PW ALGORITHM --------------- ION=   1  ELEC=  92--------------------------------
  K-point    CG iter num      Time(Sec)
        1      51.350000     290.810982
        2      51.150000     286.226565
        3      51.366667     293.417877
        4      50.250000     291.067559
        5      50.200000     290.674158
        6      46.816667     272.635405
        7      51.233333     296.578398
        8      50.900000     293.379281
        9      49.700000     288.150974
       10      49.750000     286.620869
       11      48.850000     283.173841
       12      48.533333     280.409905
       13      48.300000     276.641260
       14      49.983333     286.999587
       15      51.583333     296.204758
       16      51.533333     293.264902
       17      48.416667     277.225433
       18      47.633333     271.370665
       19      48.933333     267.584675
       20      47.100000     270.003475
       21      49.333333     284.125946
       22      49.333333     286.327885
       23      51.050000     297.092394
       24      51.250000     295.918565
       25      49.633333     285.517011
       26      46.850000     269.113965
       27      46.866667     276.683374
       28      48.733333     266.602304
       29      48.600000     278.685643
       30      47.016667     271.818772
       31      46.716667     271.931949

 Density error is 12668.904554386774
                          Error Threshold = 0.002825245950

       Energy                       Rydberg                            eV
   E_KohnSham            +1554.941099642590           +21156.059009524990
     E_Harris            -1351.023663309488           -18381.619953842583
      E_Fermi              -17.916259701881             -243.763218793362

 PW ALGORITHM --------------- ION=   1  ELEC=  93--------------------------------
  K-point    CG iter num      Time(Sec)
        1      56.900000     328.723725
        2      60.000000     347.219270
        3      59.050000     339.148820
        4      59.366667     334.875485
        5      57.250000     317.435846
        6      54.883333     305.629013
        7      59.083333     328.036980
        8      57.983333     341.965948
        9      57.716667     324.735791
       10      57.416667     330.093512
       11      56.950000     329.766080
       12      56.750000     328.889755
       13      57.333333     330.168112
       14      58.600000     338.231663
       15      58.700000     339.236501
       16      62.783333     360.860540
       17      58.216667     322.318403
       18      57.150000     334.005822
       19      57.166667     313.510181
       20      54.750000     323.229037
       21      57.550000     328.335006
       22      56.066667     323.327686
       23      59.616667     343.620251
       24      57.350000     327.579935
       25      57.233333     318.420856
       26      55.600000     325.614495
       27      55.283333     316.007711
       28      56.500000     326.463161
       29      57.500000     331.222478
       30      55.000000     314.920143
       31      54.383333     302.625851

 Density error is 13533.743820538966
                          Error Threshold = 0.002825245950

       Energy                       Rydberg                            eV
   E_KohnSham             -141.015255901289            -1918.610985185656
     E_Harris            -2163.532661306783           -29436.372002876378
      E_Fermi              -30.513361098996             -415.155576077889

 PW ALGORITHM --------------- ION=   1  ELEC=  94--------------------------------
  K-point    CG iter num      Time(Sec)
        1      53.933333     307.230037
        2      54.733333     314.491667
        3      53.400000     306.410188
        4      53.466667     306.494304
        5      54.483333     311.835865
        6      50.883333     285.084180
        7      54.716667     303.113162
        8      55.600000     322.472379
        9      53.600000     197.599799
       10      52.966667     132.849990
       11      53.533333     135.172194
       12      52.716667     134.425906
       13      52.366667     133.533619
       14      52.850000     134.997863
       15      54.466667     138.537600
       16      54.650000     139.156530
       17      54.416667     138.443117
       18      52.783333     254.871625
       19      53.416667     308.536081
       20      51.733333     297.780863
       21      52.533333     301.484817
       22      52.833333     304.418637
       23      52.933333     306.887650
       24      51.700000     298.529273
       25      53.550000     308.705432
       26      51.216667     294.736643
       27      51.083333     294.306384
       28      54.733333     315.339361
       29      53.416667     308.806175
       30      52.066667     300.317982
       31      51.766667     299.925454

 Density error is 12925.719456160690
                          Error Threshold = 0.002825245950

       Energy                       Rydberg                            eV
   E_KohnSham             -417.771562453126            -5684.073711725374
     E_Harris            -1782.073285635731           -24246.350938227497
      E_Fermi              -24.546125321725             -333.967168197542

 PW ALGORITHM --------------- ION=   1  ELEC=  95--------------------------------
  K-point    CG iter num      Time(Sec)
        1      45.016667     264.725714
        2      47.100000     273.625517
        3      45.283333     264.345733
        4      46.166667     267.232767
        5      45.550000     263.400565
        6      45.183333     269.503945
        7      46.633333     265.678644
        8      45.316667     264.706698
        9      43.350000     253.790918
       10      46.350000     270.609373
       11      44.266667     259.853010
       12      45.000000     263.518404
       13      48.200000     278.296365
       14      44.550000     260.848999
       15      44.683333     270.273536
       16      44.816667     253.562148
       17      45.283333     263.026314
       18      43.200000     253.848902
       19      48.266667     282.519434
       20      43.200000     254.378601
       21      48.150000     282.403662
       22      43.266667     242.396060
       23      45.283333     265.889668
       24      46.250000     269.864710
       25      45.300000     266.707702
       26      44.850000     262.281556
       27      46.000000     265.365614
       28      45.500000     271.106109
       29      45.916667     253.525450
       30      44.716667     260.166696
       31      43.900000     255.657718

 Density error is 12859.471738545470
                          Error Threshold = 0.002825245950

       Energy                       Rydberg                            eV
   E_KohnSham              +93.188698667555            +1267.897291083750
     E_Harris            -1298.770619122202           -17670.680815049709
      E_Fermi              -16.814503037920             -228.773050354017

 PW ALGORITHM --------------- ION=   1  ELEC=  96--------------------------------
  K-point    CG iter num      Time(Sec)
        1      47.716667     277.847011
        2      52.716667     304.879794
        3      52.283333     300.999724
        4      49.550000     285.422848
        5      49.816667     287.589574
        6      44.400000     258.432961
        7      52.433333     306.041071
        8      49.466667     289.274432
        9      47.600000     278.367152
       10      49.583333     287.363251
       11      49.800000     287.317263
       12      48.683333     279.781723
       13      49.466667     284.870929
       14      48.066667     279.611501
       15      50.016667     284.846133
       16      52.800000     305.423770
       17      47.816667     277.369280
       18      48.950000     283.325007
       19      49.933333     288.073161
       20      48.666667     288.611468
       21      49.533333     288.351445
       22      48.750000     278.052173
       23      51.933333     295.391255
       24      49.450000     285.358415
       25      49.316667     285.109422
       26      47.133333     272.990307
       27      47.266667     274.307417
       28      49.016667     283.791450
       29      48.533333     280.090982
       30      49.016667     285.271430
       31      43.750000     256.547496

 Density error is 13109.426256391462
                          Error Threshold = 0.002825245950

       Energy                       Rydberg                            eV
   E_KohnSham             +386.181986172922            +5254.275476908952
     E_Harris            -1657.129033769118           -22546.397180494423
      E_Fermi              -22.593928862128             -307.406172731596

 PW ALGORITHM --------------- ION=   1  ELEC=  97--------------------------------
  K-point    CG iter num      Time(Sec)
        1      53.050000     308.461261
        2      54.466667     314.632348
        3      54.333333     313.882438
        4      52.416667     295.798043
        5      51.666667     290.108185
        6      49.166667     278.218518
        7      54.066667     310.409467
        8      52.966667     297.187920
        9      52.166667     290.678420
       10      52.350000     297.436062
       11      52.600000     303.073978
       12      50.866667     297.801893
       13      51.683333     295.447301
       14      53.266667     307.829857
       15      52.766667     306.744366
       16      53.250000     309.482394
       17      52.733333     306.395689
       18      50.883333     297.650376
       19      51.200000     292.737331
       20      49.850000     284.794901
       21      53.016667     301.641964
       22      51.300000     295.005101
       23      52.583333     305.088890
       24      50.633333     293.738515
       25      51.166667     296.008354
       26      49.583333     286.792211
       27      50.600000     290.241580
       28      52.083333     299.725718
       29      51.233333     293.031462
       30      49.750000     285.487753
       31      49.350000     288.208373

 Density error is 12741.256525473875
                          Error Threshold = 0.002825245950

       Energy                       Rydberg                            eV
   E_KohnSham            +1702.903817079883           +23169.195058236124
     E_Harris            -1351.083681497830           -18382.436543187661
      E_Fermi              -17.909749131850             -243.674637943714

 PW ALGORITHM --------------- ION=   1  ELEC=  98--------------------------------
  K-point    CG iter num      Time(Sec)
        1      63.250000     367.608444
        2      58.550000     334.968448
        3      59.550000     342.382211
        4      59.066667     332.622057
        5      57.433333     323.167065
        6      56.183333     319.023715
        7      60.416667     338.179464
        8      59.666667     340.816495
