 *********************************************************
 *                                                       *
 *                  WELCOME TO ABACUS v3.0               *
 *                                                       *
 *            'Atomic-orbital Based Ab-initio            *
 *                  Computation at UStc'                 *
 *                                                       *
 *          Website: http://abacus.ustc.edu.cn/          *
 *                                                       *
 *********************************************************
 Mon Mar  6 13:57:11 2023
 MAKE THE DIR         : OUT.blpstest/
Notice: symbol 'Li_locpsp' is not an element symbol!!!! set the covalent radius to be 0.
Notice: symbol 'al_locpsp' is not an element symbol!!!! set the covalent radius to be 0.
 UNIFORM GRID DIM     : 48 * 48 * 48
 UNIFORM GRID DIM(BIG): 48 * 48 * 48
func,idXC_GGA_X_PBE 101
func,idXC_GGA_C_PBE 130
 DONE(0.268421   SEC) : SETUP UNITCELL
 DONE(0.302465   SEC) : SYMMETRY
 DONE(0.454113   SEC) : INIT K-POINTS
 ---------------------------------------------------------
 Self-consistent calculations for electrons
 ---------------------------------------------------------
 SPIN    KPOINTS         PROCESSORS  
 1       286             1           
 ---------------------------------------------------------
 Use plane wave basis
 ---------------------------------------------------------
 ELEMENT NATOM       XC          
 Li      8           
 Al      8           
 ---------------------------------------------------------
 Initial plane wave basis and FFT box
 ---------------------------------------------------------
 DONE(0.754738   SEC) : INIT PLANEWAVE
 MEMORY FOR PSI (MB)  : 951.791
 DONE(1.20965    SEC) : LOCAL POTENTIAL
 DONE(1.20968    SEC) : NON-LOCAL POTENTIAL
 DONE(1.20974    SEC) : INIT BASIS
 START CHARGE      : atomic
 DONE(1.37218    SEC) : INIT SCF
 ITER   ETOT(eV)       EDIFF(eV)      DRHO       TIME(s)    
 CG1    -5.235138e+02  0.000000e+00   2.765e+00  1.167e+03  
 CG2    -5.285454e+02  -5.031558e+00  9.351e-02  3.598e+02  
 CG3    -5.289469e+02  -4.015072e-01  7.016e-03  1.465e+03  
 CG4    -5.289708e+02  -2.395155e-02  1.014e-03  1.093e+03  
 CG5    -5.289730e+02  -2.209949e-03  2.909e-05  3.593e+02  
 CG6    -5.289732e+02  -1.197798e-04  9.502e-06  4.099e+02  
 CG7    -5.289732e+02  -2.715158e-05  6.622e-08  2.545e+02  
 CG8    -5.289732e+02  -6.308985e-07  3.248e-08  3.575e+02  
 CG9    -5.289732e+02  -7.829613e-08  8.706e-10  2.020e+02  

  |CLASS_NAME---------|NAME---------------|TIME(Sec)-----|CALLS----|AVG------|PER%-------
                       total               5669           17        3.3e+02   1e+02     %
   Driver              driver_line         5669           1         5.7e+03   1e+02     %
   PW_Basis            setuptransform      0.23788        1         0.24      0.0042    %
   PW_Basis_K          setuptransform      0.21444        1         0.21      0.0038    %
   PW_Basis            setup_struc_factor  0.39509        1         0.4       0.007     %
   ESolver_KS_PW       Run                 5667.7         1         5.7e+03   1e+02     %
   PW_Basis            recip2real          0.38682        62        0.0062    0.0068    %
   Potential           update_from_charge  2.0272         10        0.2       0.036     %
   Potential           cal_v_eff           2.0241         10        0.2       0.036     %
   H_Hartree_pw        v_hartree           0.1696         10        0.017     0.003     %
   PW_Basis            real2recip          0.62114        98        0.0063    0.011     %
   PotXC               cal_v_eff           1.8419         10        0.18      0.032     %
   XC_Functional       v_xc                3447.4         5         6.9e+02   61        %
   XC_Functional       v_xc_libxc          1.8256         10        0.18      0.032     %
   HSolverPW           solve               5665.1         9         6.3e+02   1e+02     %
   WF_atomic           atomic_wfc          1.0203         286       0.0036    0.018     %
   WF_igk              get_sk              0.91635        4576      0.0002    0.016     %
   DiagoIterAssist     diagH_subspace      905.42         2574      0.35      16        %
   OperatorPW          hPsi                4532.4         313494    0.014     80        %
   Operator            EkineticPW          30.365         313494    9.7e-05   0.54      %
   Operator            VeffPW              4490.7         313494    0.014     79        %
   PW_Basis_K          recip2real          2283           431297    0.0053    40        %
   PW_Basis_K          gathers_scatterp    370.25         431297    0.00086   6.5       %
   PW_Basis_K          real2recip          1905.6         388140    0.0049    34        %
   PW_Basis_K          gatherp_scatters    107.89         388140    0.00028   1.9       %
   Operator            NonlocalPW          0.84818        313494    2.7e-06   0.015     %
   DiagoIterAssist     LAPACK_subspace     1.6511         2574      0.00064   0.029     %
   DiagoCG             diag_once           4517.6         2574      1.8       80        %
   ElecStatePW         psiToRho            229.2          9         25        4         %
   Charge              mix_rho             0.27597        8         0.034     0.0049    %
 ----------------------------------------------------------------------------------------

 START  Time  : Mon Mar  6 13:57:11 2023
 FINISH Time  : Mon Mar  6 15:31:40 2023
 TOTAL  Time  : 5.7e+03
 SEE INFORMATION IN : OUT.blpstest/
