 *********************************************************
 *                                                       *
 *                  WELCOME TO ABACUS v3.0               *
 *                                                       *
 *            'Atomic-orbital Based Ab-initio            *
 *                  Computation at UStc'                 *
 *                                                       *
 *          Website: http://abacus.ustc.edu.cn/          *
 *                                                       *
 *********************************************************
 Wed Dec 28 12:30:01 2022
 MAKE THE DIR         : OUT.blpstest/
Notice: symbol 'Li_locpsp' is not an element symbol!!!! set the covalent radius to be 0.
 UNIFORM GRID DIM     : 25 * 25 * 25
 UNIFORM GRID DIM(BIG): 25 * 25 * 25
func,idXC_GGA_X_PBE 101
func,idXC_GGA_C_PBE 130
 DONE(0.0813716  SEC) : SETUP UNITCELL
 DONE(0.133683   SEC) : SYMMETRY
 DONE(0.461104   SEC) : INIT K-POINTS
 ---------------------------------------------------------
 Self-consistent calculations for electrons
 ---------------------------------------------------------
 SPIN    KPOINTS         PROCESSORS  
 1       286             1           
 ---------------------------------------------------------
 Use plane wave basis
 ---------------------------------------------------------
 ELEMENT NATOM       XC          
 Li      1           
 ---------------------------------------------------------
 Initial plane wave basis and FFT box
 ---------------------------------------------------------
 DONE(0.538165   SEC) : INIT PLANEWAVE
 MEMORY FOR PSI (MB)  : 21.7328
 DONE(0.55045    SEC) : LOCAL POTENTIAL
 DONE(0.550487   SEC) : NON-LOCAL POTENTIAL
 DONE(0.550551   SEC) : INIT BASIS
 START CHARGE      : atomic
 DONE(0.58508    SEC) : INIT SCF
 ITER   ETOT(eV)       EDIFF(eV)      DRHO       TIME(s)    
 CG1    -7.316093e+00  0.000000e+00   1.032e-02  1.013e+01  
 CG2    -7.402722e+00  -8.662878e-02  1.124e-03  4.607e+00  
 CG3    -7.403642e+00  -9.206439e-04  1.505e-06  4.751e+00  
 CG4    -7.403685e+00  -4.241088e-05  7.710e-07  7.705e+00  
 CG5    -7.403686e+00  -1.506315e-06  1.187e-07  4.413e+00  
 CG6    -7.403686e+00  -6.038567e-08  3.564e-09  3.915e+00  
 CG7    -7.403686e+00  -3.850527e-09  3.151e-11  4.838e+00  

  |CLASS_NAME---------|NAME---------------|TIME(Sec)-----|CALLS----|AVG------|PER%-------
                       total               40.965         17        2.4       1e+02     %
   Driver              driver_line         40.956         1         41        1e+02     %
   ESolver_KS_PW       Run                 40.402         1         40        99        %
   Potential           update_from_charge  0.15481        8         0.019     0.38      %
   Potential           cal_v_eff           0.15405        8         0.019     0.38      %
   PotXC               cal_v_eff           0.14208        8         0.018     0.35      %
   XC_Functional       v_xc                24.131         4         6         59        %
   XC_Functional       v_xc_libxc          0.14172        8         0.018     0.35      %
   HSolverPW           solve               40.188         7         5.7       98        %
   DiagoIterAssist     diagH_subspace      8.2437         2002      0.0041    20        %
   OperatorPW          hPsi                36.853         39110     0.00094   90        %
   Operator            EkineticPW          0.19826        39110     5.1e-06   0.48      %
   Operator            VeffPW              36.484         39110     0.00093   89        %
   PW_Basis_K          recip2real          18.569         48223     0.00039   45        %
   PW_Basis_K          gathers_scatterp    1.6458         48223     3.4e-05   4         %
   PW_Basis_K          real2recip          16.705         47118     0.00035   41        %
   PW_Basis_K          gatherp_scatters    0.44575        47118     9.5e-06   1.1       %
   DiagoCG             diag_once           30.896         2002      0.015     75        %
   ElecStatePW         psiToRho            0.50393        7         0.072     1.2       %
 ----------------------------------------------------------------------------------------

 START  Time  : Wed Dec 28 12:30:01 2022
 FINISH Time  : Wed Dec 28 12:30:42 2022
 TOTAL  Time  : 41
 SEE INFORMATION IN : OUT.blpstest/
