 *********************************************************
 *                                                       *
 *                  WELCOME TO ABACUS v3.0               *
 *                                                       *
 *            'Atomic-orbital Based Ab-initio            *
 *                  Computation at UStc'                 *
 *                                                       *
 *          Website: http://abacus.ustc.edu.cn/          *
 *                                                       *
 *********************************************************
 Tue May  2 12:46:43 2023
 MAKE THE DIR         : OUT.blpstest/
Notice: symbol 'al_locpsp' is not an element symbol!!!! set the covalent radius to be 0.
 UNIFORM GRID DIM     : 25 * 25 * 25
 UNIFORM GRID DIM(BIG): 25 * 25 * 25
func,idXC_GGA_X_PBE 101
func,idXC_GGA_C_PBE 130
 DONE(0.120918   SEC) : SETUP UNITCELL
 DONE(0.177745   SEC) : SYMMETRY
 DONE(0.445077   SEC) : INIT K-POINTS
 ---------------------------------------------------------
 Self-consistent calculations for electrons
 ---------------------------------------------------------
 SPIN    KPOINTS         PROCESSORS  
 1       286             1           
 ---------------------------------------------------------
 Use plane wave basis
 ---------------------------------------------------------
 ELEMENT NATOM       XC          
 Al      1           
 ---------------------------------------------------------
 Initial plane wave basis and FFT box
 ---------------------------------------------------------
 DONE(0.445827   SEC) : INIT BASIS
 DONE(0.445855   SEC) : INIT PHI
 DONE(0.463707   SEC) : LOCAL POTENTIAL
 DONE(0.463746   SEC) : NON-LOCAL POTENTIAL
 START CHARGE      : atomic
 DONE(0.501469   SEC) : INIT POTENTIAL
 DONE(0.501508   SEC) : INIT OPTIMIZATION
Default type: double
 DONE(0.502054   SEC) : INIT KEDF
======================== Running OFDFT ========================
Iter        Etot(Ha)          Theta      PotNorm     deltaE(Ha)
0     -1.976583149192e+00   2.000e-01   1.805e-01   -1.977e+00  
1     -2.003498871602e+00   7.280e-02   2.439e-01   -2.692e-02  
2     -2.079475093236e+00   1.112e-01   1.466e-01   -7.598e-02  
3     -2.084579604675e+00   2.280e-02   1.213e-02   -5.105e-03  
4     -2.084654839394e+00   3.001e-03   4.477e-03   -7.523e-05  
5     -2.084664306557e+00   1.346e-03   3.276e-04   -9.467e-06  
6     -2.084664359888e+00   6.889e-05   3.183e-05   -5.333e-08  
7     -2.084664360586e+00   1.277e-05   4.628e-06   -6.982e-10  

  |CLASS_NAME---------|NAME---------------|TIME(Sec)-----|CALLS----|AVG------|PER%-------
                       total               5.3353         21        0.25      1e+02     %
   Driver              driver_line         5.3167         1         5.3       1e+02     %
   PW_Basis            recip2real          0.99273        1932      0.00051   19        %
   Potential           update_from_charge  2.784          149       0.019     52        %
   Potential           cal_v_eff           2.783          149       0.019     52        %
   H_Hartree_pw        v_hartree           0.19856        149       0.0013    3.7       %
   PW_Basis            real2recip          1.0473         1932      0.00054   20        %
   PotXC               cal_v_eff           2.5699         149       0.017     48        %
   XC_Functional       v_xc                2.4037         75        0.032     45        %
   XC_Functional       v_xc_libxc          2.5601         149       0.017     48        %
   ESolver_OF          Run                 4.8327         1         4.8       91        %
   KEDF_LKT            LKT_potential       1.756          148       0.012     33        %
   KEDF_vW             vw_potential        0.1897         148       0.0013    3.6       %
 ----------------------------------------------------------------------------------------

 START  Time  : Tue May  2 12:46:43 2023
 FINISH Time  : Tue May  2 12:46:48 2023
 TOTAL  Time  : 5
 SEE INFORMATION IN : OUT.blpstest/
