 *********************************************************
 *                                                       *
 *                  WELCOME TO ABACUS v3.0               *
 *                                                       *
 *            'Atomic-orbital Based Ab-initio            *
 *                  Computation at UStc'                 *
 *                                                       *
 *          Website: http://abacus.ustc.edu.cn/          *
 *                                                       *
 *********************************************************
 Wed Dec 28 12:03:40 2022
 MAKE THE DIR         : OUT.blpstest/
Notice: symbol 'al_locpsp' is not an element symbol!!!! set the covalent radius to be 0.
 UNIFORM GRID DIM     : 30 * 30 * 48
 UNIFORM GRID DIM(BIG): 30 * 30 * 48
func,idXC_GGA_X_PBE 101
func,idXC_GGA_C_PBE 130
 DONE(0.189477   SEC) : SETUP UNITCELL
 DONE(0.240948   SEC) : SYMMETRY
 DONE(0.269412   SEC) : INIT K-POINTS
 ---------------------------------------------------------
 Self-consistent calculations for electrons
 ---------------------------------------------------------
 SPIN    KPOINTS         PROCESSORS  
 1       133             1           
 ---------------------------------------------------------
 Use plane wave basis
 ---------------------------------------------------------
 ELEMENT NATOM       XC          
 Al      2           
 ---------------------------------------------------------
 Initial plane wave basis and FFT box
 ---------------------------------------------------------
 DONE(0.380071   SEC) : INIT PLANEWAVE
 MEMORY FOR PSI (MB)  : 64.9008
 DONE(0.459893   SEC) : LOCAL POTENTIAL
 DONE(0.459937   SEC) : NON-LOCAL POTENTIAL
 DONE(0.460016   SEC) : INIT BASIS
 START CHARGE      : atomic
 DONE(0.627852   SEC) : INIT SCF
 ITER   ETOT(eV)       EDIFF(eV)      DRHO       TIME(s)    
 CG1    -1.135153e+02  0.000000e+00   1.390e-01  5.640e+01  
 CG2    -1.141200e+02  -6.046942e-01  1.142e-02  1.946e+01  
 CG3    -1.141363e+02  -1.630124e-02  1.060e-04  2.564e+01  
 CG4    -1.141370e+02  -7.586798e-04  5.142e-05  3.184e+01  
 CG5    -1.141372e+02  -2.066091e-04  8.261e-06  2.140e+01  
 CG6    -1.141373e+02  -2.420376e-05  2.558e-08  1.705e+01  
 CG7    -1.141373e+02  -1.363552e-07  5.392e-10  2.264e+01  

  |CLASS_NAME---------|NAME---------------|TIME(Sec)-----|CALLS----|AVG------|PER%-------
                       total               195.09         17        11        1e+02     %
   Driver              driver_line         195.08         1         2e+02     1e+02     %
   PW_Basis            setuptransform      0.17401        1         0.17      0.089     %
   ESolver_KS_PW       Run                 194.61         1         1.9e+02   1e+02     %
   Potential           update_from_charge  0.48615        8         0.061     0.25      %
   Potential           cal_v_eff           0.48433        8         0.061     0.25      %
   PW_Basis            real2recip          0.13482        78        0.0017    0.069     %
   PotXC               cal_v_eff           0.44946        8         0.056     0.23      %
   XC_Functional       v_xc                126.07         4         32        65        %
   XC_Functional       v_xc_libxc          0.44694        8         0.056     0.23      %
   HSolverPW           solve               193.92         7         28        99        %
   DiagoIterAssist     diagH_subspace      37.294         931       0.04      19        %
   OperatorPW          hPsi                178.41         56636     0.0032    91        %
   Operator            EkineticPW          0.62324        56636     1.1e-05   0.32      %
   Operator            VeffPW              177.41         56636     0.0031    91        %
   PW_Basis_K          recip2real          91.508         72668     0.0013    47        %
   PW_Basis_K          gathers_scatterp    6.7647         72668     9.3e-05   3.5       %
   PW_Basis_K          real2recip          80.472         69670     0.0012    41        %
   PW_Basis_K          gatherp_scatters    1.715          69670     2.5e-05   0.88      %
   DiagoIterAssist     LAPACK_subspace     0.1688         931       0.00018   0.087     %
   DiagoCG             diag_once           150.89         931       0.16      77        %
   ElecStatePW         psiToRho            4.1237         7         0.59      2.1       %
 ----------------------------------------------------------------------------------------

 START  Time  : Wed Dec 28 12:03:40 2022
 FINISH Time  : Wed Dec 28 12:06:55 2022
 TOTAL  Time  : 2e+02
 SEE INFORMATION IN : OUT.blpstest/
