 *********************************************************
 *                                                       *
 *                  WELCOME TO ABACUS v3.0               *
 *                                                       *
 *            'Atomic-orbital Based Ab-initio            *
 *                  Computation at UStc'                 *
 *                                                       *
 *          Website: http://abacus.ustc.edu.cn/          *
 *                                                       *
 *********************************************************
 Tue May  2 12:46:29 2023
 MAKE THE DIR         : OUT.blpstest/
Notice: symbol 'al_locpsp' is not an element symbol!!!! set the covalent radius to be 0.
 UNIFORM GRID DIM     : 27 * 27 * 27
 UNIFORM GRID DIM(BIG): 27 * 27 * 27
func,idXC_GGA_X_PBE 101
func,idXC_GGA_C_PBE 130
 DONE(0.121305   SEC) : SETUP UNITCELL
 DONE(0.175441   SEC) : SYMMETRY
 DONE(0.565198   SEC) : INIT K-POINTS
 ---------------------------------------------------------
 Self-consistent calculations for electrons
 ---------------------------------------------------------
 SPIN    KPOINTS         PROCESSORS  
 1       256             1           
 ---------------------------------------------------------
 Use plane wave basis
 ---------------------------------------------------------
 ELEMENT NATOM       XC          
 Al      1           
 ---------------------------------------------------------
 Initial plane wave basis and FFT box
 ---------------------------------------------------------
 DONE(0.56616    SEC) : INIT BASIS
 DONE(0.566186   SEC) : INIT PHI
 DONE(0.608126   SEC) : LOCAL POTENTIAL
 DONE(0.60816    SEC) : NON-LOCAL POTENTIAL
 START CHARGE      : atomic
 DONE(0.688025   SEC) : INIT POTENTIAL
 DONE(0.688108   SEC) : INIT OPTIMIZATION
Default type: double
 DONE(0.689388   SEC) : INIT KEDF
======================== Running OFDFT ========================
Iter        Etot(Ha)          Theta      PotNorm     deltaE(Ha)
0     -2.021051347258e+00   2.000e-01   2.023e-01   -2.021e+00  
1     -2.099753115276e+00   1.011e-01   1.983e-01   -7.870e-02  
2     -2.104340564081e+00   1.197e-02   5.054e-02   -4.587e-03  
3     -2.104660260411e+00   4.143e-03   2.072e-02   -3.197e-04  
4     -2.104749947581e+00   2.824e-03   1.060e-02   -8.969e-05  
5     -2.104764661577e+00   6.606e-04   4.459e-03   -1.471e-05  
6     -2.104773010425e+00   1.349e-03   4.320e-04   -8.349e-06  
7     -2.104773028614e+00   2.435e-05   1.492e-04   -1.819e-08  
8     -2.104773035136e+00   2.996e-05   1.411e-05   -6.522e-09  

  |CLASS_NAME---------|NAME---------------|TIME(Sec)-----|CALLS----|AVG------|PER%-------
                       total               13.156         21        0.63      1e+02     %
   Driver              driver_line         13.137         1         13        1e+02     %
   PW_Basis            recip2real          2.8127         2166      0.0013    21        %
   PW_Basis            gathers_scatterp    0.29246        2166      0.00014   2.2       %
   Potential           update_from_charge  7.1836         167       0.043     55        %
   Potential           cal_v_eff           7.1813         167       0.043     55        %
   H_Hartree_pw        v_hartree           0.59179        167       0.0035    4.5       %
   PW_Basis            real2recip          2.9487         2166      0.0014    22        %
   PW_Basis            gatherp_scatters    0.29118        2166      0.00013   2.2       %
   PotXC               cal_v_eff           6.5406         167       0.039     50        %
   XC_Functional       v_xc                6.1573         84        0.073     47        %
   XC_Functional       v_xc_libxc          6.5135         167       0.039     50        %
   ESolver_OF          Run                 12.465         1         12        95        %
   KEDF_LKT            LKT_potential       4.4451         166       0.027     34        %
   KEDF_vW             vw_potential        0.54488        166       0.0033    4.1       %
 ----------------------------------------------------------------------------------------

 START  Time  : Tue May  2 12:46:29 2023
 FINISH Time  : Tue May  2 12:46:42 2023
 TOTAL  Time  : 13
 SEE INFORMATION IN : OUT.blpstest/
