                                                                                     
                             WELCOME TO ABACUS v3.0                                  
                                                                                     
               'Atomic-orbital Based Ab-initio Computation at UStc'                  
                                                                                     
                     Website: http://abacus.ustc.edu.cn/                             
                                                                                     
    Version: Parallel, in development
    Processor Number is 1
    Start Time is Mon May 15 11:36:12 2023
                                                                                     
 ------------------------------------------------------------------------------------

 READING GENERAL INFORMATION
                           global_out_dir = OUT.oftest/
                           global_in_card = INPUT
                               pseudo_dir = 
                              orbital_dir = 
                                    DRANK = 1
                                    DSIZE = 1
                                   DCOLOR = 1
                                    GRANK = 1
                                    GSIZE = 1
 The esolver type has been set to : ofdft




 >>>>>>>>>>>>>>>>>>>>>>>>>>>>>>>>>>>>>>>>>>>>>>>>>>>>>>>>>>>>>>>>>>>>>>
 |                                                                    |
 | Reading atom information in unitcell:                              |
 | From the input file and the structure file we know the number of   |
 | different elments in this unitcell, then we list the detail        |
 | information for each element, especially the zeta and polar atomic |
 | orbital number for each element. The total atom number is counted. |
 | We calculate the nearest atom distance for each atom and show the  |
 | Cartesian and Direct coordinates for each atom. We list the file   |
 | address for atomic orbitals. The volume and the lattice vectors    |
 | in real and reciprocal space is also shown.                        |
 |                                                                    |
 <<<<<<<<<<<<<<<<<<<<<<<<<<<<<<<<<<<<<<<<<<<<<<<<<<<<<<<<<<<<<<<<<<<<<<




 READING UNITCELL INFORMATION
                                    ntype = 3
                 atom label for species 1 = Li
                 atom label for species 2 = Mg
                 atom label for species 3 = Al
                  lattice constant (Bohr) = 1.88973
              lattice constant (Angstrom) = 1

 READING ATOM TYPE 1
                               atom label = Li
                      L=0, number of zeta = 1
                      L=1, number of zeta = 1
                      L=2, number of zeta = 1
             number of atom for this type = 2
                      start magnetization = FALSE
                      start magnetization = FALSE

 READING ATOM TYPE 2
                               atom label = Mg
                      L=0, number of zeta = 1
                      L=1, number of zeta = 1
                      L=2, number of zeta = 1
             number of atom for this type = 28
                      start magnetization = FALSE
                      start magnetization = FALSE
                      start magnetization = FALSE
                      start magnetization = FALSE
                      start magnetization = FALSE
                      start magnetization = FALSE
                      start magnetization = FALSE
                      start magnetization = FALSE
                      start magnetization = FALSE
                      start magnetization = FALSE
                      start magnetization = FALSE
                      start magnetization = FALSE
                      start magnetization = FALSE
                      start magnetization = FALSE
                      start magnetization = FALSE
                      start magnetization = FALSE
                      start magnetization = FALSE
                      start magnetization = FALSE
                      start magnetization = FALSE
                      start magnetization = FALSE
                      start magnetization = FALSE
                      start magnetization = FALSE
                      start magnetization = FALSE
                      start magnetization = FALSE
                      start magnetization = FALSE
                      start magnetization = FALSE
                      start magnetization = FALSE
                      start magnetization = FALSE

 READING ATOM TYPE 3
                               atom label = Al
                      L=0, number of zeta = 1
                      L=1, number of zeta = 1
                      L=2, number of zeta = 1
             number of atom for this type = 2
                      start magnetization = FALSE
                      start magnetization = FALSE

                        TOTAL ATOM NUMBER = 32

 DIRECT COORDINATES
         atom                   x                   y                   z                 mag                  vx                  vy                  vz
     taud_Li1                   0            0.667312                 0.5                   0                   0                   0                   0
     taud_Li2                 0.5            0.167312                 0.5                   0                   0                   0                   0
     taud_Mg1                 0.5            0.666653                   0                   0                   0                   0                   0
     taud_Mg2                   0            0.666238                   0                   0                   0                   0                   0
     taud_Mg3             0.24762            0.915712                 0.5                   0                   0                   0                   0
     taud_Mg4            0.250094            0.916873                   0                   0                   0                   0                   0
     taud_Mg5             0.25238            0.415712                 0.5                   0                   0                   0                   0
     taud_Mg6            0.249906            0.416873                   0                   0                   0                   0                   0
     taud_Mg7            0.248028           0.0848683            0.255016                   0                   0                   0                   0
     taud_Mg8            0.248028           0.0848683            0.744984                   0                   0                   0                   0
     taud_Mg9            0.251972            0.584868            0.255016                   0                   0                   0                   0
    taud_Mg10            0.251972            0.584868            0.744984                   0                   0                   0                   0
    taud_Mg11                 0.5            0.831761            0.253353                   0                   0                   0                   0
    taud_Mg12                 0.5            0.831761            0.746647                   0                   0                   0                   0
    taud_Mg13                   0            0.833023            0.250291                   0                   0                   0                   0
    taud_Mg14                   0            0.833023            0.749709                   0                   0                   0                   0
    taud_Mg15                   0            0.166653                   0                   0                   0                   0                   0
    taud_Mg16                 0.5            0.166238                   0                   0                   0                   0                   0
    taud_Mg17             0.74762            0.415712                 0.5                   0                   0                   0                   0
    taud_Mg18            0.750094            0.416873                   0                   0                   0                   0                   0
    taud_Mg19             0.75238            0.915712                 0.5                   0                   0                   0                   0
    taud_Mg20            0.749906            0.916873                   0                   0                   0                   0                   0
    taud_Mg21            0.748028            0.584868            0.255016                   0                   0                   0                   0
    taud_Mg22            0.748028            0.584868            0.744984                   0                   0                   0                   0
    taud_Mg23            0.751972           0.0848683            0.255016                   0                   0                   0                   0
    taud_Mg24            0.751972           0.0848683            0.744984                   0                   0                   0                   0
    taud_Mg25                   0            0.331761            0.253353                   0                   0                   0                   0
    taud_Mg26                   0            0.331761            0.746647                   0                   0                   0                   0
    taud_Mg27                 0.5            0.333023            0.250291                   0                   0                   0                   0
    taud_Mg28                 0.5            0.333023            0.749709                   0                   0                   0                   0
     taud_Al1                 0.5            0.665579                 0.5                   0                   0                   0                   0
     taud_Al2                   0            0.165579                 0.5                   0                   0                   0                   0


                          Volume (Bohr^3) = 4797.64
                             Volume (A^3) = 710.936

 Lattice vectors: (Cartesian coordinate: in unit of a_0)
             +6.31854                  +0                  +0
                   +0            +10.8867                  +0
                   +0                  +0            +10.3352
 Reciprocal vectors: (Cartesian coordinate: in unit of 2 pi/a_0)
            +0.158264                  -0                  +0
                   -0          +0.0918555                  -0
                   +0                  -0          +0.0967567




 >>>>>>>>>>>>>>>>>>>>>>>>>>>>>>>>>>>>>>>>>>>>>>>>>>>>>>>>>>>>>>>>>>>>>>
 |                                                                    |
 | Reading pseudopotentials files:                                    |
 | The pseudopotential file is in UPF format. The 'NC' indicates that |
 | the type of pseudopotential is 'norm conserving'. Functional of    |
 | exchange and correlation is decided by 4 given parameters in UPF   |
 | file.  We also read in the 'core correction' if there exists.      |
 | Also we can read the valence electrons number and the maximal      |
 | angular momentum used in this pseudopotential. We also read in the |
 | trail wave function, trail atomic density and local-pseudopotential|
 | on logrithmic grid. The non-local pseudopotential projector is also|
 | read in if there is any.                                           |
 |                                                                    |
 <<<<<<<<<<<<<<<<<<<<<<<<<<<<<<<<<<<<<<<<<<<<<<<<<<<<<<<<<<<<<<<<<<<<<<




                PAO radial cut off (Bohr) = 16

 Read in pseudopotential file is li.gga.psp.1
                     pseudopotential type = 
          exchange-correlation functional = XC_GGA_X_PBE+XC_GGA_C_PBE
                 nonlocal core correction = 0
                        valence electrons = 1
                                     lmax = 0
                           number of zeta = 0
                     number of projectors = 0
                PAO radial cut off (Bohr) = 16

 Read in pseudopotential file is mg.gga.psp
                     pseudopotential type = 
          exchange-correlation functional = XC_GGA_X_PBE+XC_GGA_C_PBE
                 nonlocal core correction = 0
                        valence electrons = 2
                                     lmax = 0
                           number of zeta = 0
                     number of projectors = 0
                PAO radial cut off (Bohr) = 16

 Read in pseudopotential file is al.gga.psp
                     pseudopotential type = 
          exchange-correlation functional = XC_GGA_X_PBE+XC_GGA_C_PBE
                 nonlocal core correction = 0
                        valence electrons = 3
                                     lmax = 0
                           number of zeta = 0
                     number of projectors = 0
Notice: symbol 'Li_locpsp' is not an element symbol!!!! set the covalent radius to be 0.
Notice: symbol 'mg_locpsp' is not an element symbol!!!! set the covalent radius to be 0.
Notice: symbol 'al_locpsp' is not an element symbol!!!! set the covalent radius to be 0.
     initial pseudo atomic orbital number = 0
                                   NLOCAL = 288




 >>>>>>>>>>>>>>>>>>>>>>>>>>>>>>>>>>>>>>>>>>>>>>>>>>>>>>>>>>>>>>>>>>>>>>
 |                                                                    |
 | Setup plane waves of charge/potential:                             |
 | Use the energy cutoff and the lattice vectors to generate the      |
 | dimensions of FFT grid. The number of FFT grid on each processor   |
 | is 'nrxx'. The number of plane wave basis in reciprocal space is   |
 | different for charege/potential and wave functions. We also set    |
 | the 'sticks' for the parallel of FFT. The number of plane waves    |
 | is 'npw' in each processor.                                        |
 <<<<<<<<<<<<<<<<<<<<<<<<<<<<<<<<<<<<<<<<<<<<<<<<<<<<<<<<<<<<<<<<<<<<<<





 SETUP THE PLANE WAVE BASIS
 energy cutoff for charge/potential (unit:Ry) = 235.196
          [fft grid for charge/potential] = 60, 108, 96
                      [fft grid division] = 1, 1, 1
      [big fft grid for charge/potential] = 60, 108, 96
                                     nbxx = 622080
                                     nrxx = 622080

 SETUP PLANE WAVES FOR CHARGE/POTENTIAL
                    number of plane waves = 622080
                         number of sticks = 6480

 PARALLEL PW FOR CHARGE/POTENTIAL
     PROC   COLUMNS(POT)             PW
        1           6480         622080
 --------------- sum -------------------
        1           6480         622080
                            number of |g| = 83545
                                  max |g| = 68.7161
                                  min |g| = 0

 SETUP THE ELECTRONS NUMBER
            electron number of element Li = 1
      total electron number of element Li = 2
            electron number of element Mg = 2
      total electron number of element Mg = 56
            electron number of element Al = 3
      total electron number of element Al = 6
            AUTOSET number of electrons:  = 64
 DONE : SETUP UNITCELL Time : 7.49825 (SEC)





 >>>>>>>>>>>>>>>>>>>>>>>>>>>>>>>>>>>>>>>>>>>>>>>>>>>>>>>>>>>>>>>>>>>>>>
 |                                                                    |
 | Doing symmetry analysis:                                           |
 | We calculate the norm of 3 vectors and the angles between them,    |
 | the type of Bravais lattice is given. We can judge if the unticell |
 | is a primitive cell. Finally we give the point group operation for |
 | this unitcell. We we use the point group operations to do symmetry |
 | analysis on given k-point mesh and the charge density.             |
 |                                                                    |
 <<<<<<<<<<<<<<<<<<<<<<<<<<<<<<<<<<<<<<<<<<<<<<<<<<<<<<<<<<<<<<<<<<<<<<




 LATTICE VECTORS: (CARTESIAN COORDINATE: IN UNIT OF A0)
             +6.31854                  +0                  +0
                   +0            +10.8867                  +0
                   +0                  +0            +10.3352
                       right hand lattice = 1
                                   NORM_A = 6.31854
                                   NORM_B = 10.8867
                                   NORM_C = 10.3352
                           ALPHA (DEGREE) = 90
                           BETA  (DEGREE) = 90
                           GAMMA (DEGREE) = 90
                             BRAVAIS TYPE = 8
                     BRAVAIS LATTICE NAME = 08. Orthorhombic P(simple)
                                    IBRAV = 8
                                  BRAVAIS = SIMPLE ORTHORHOMBIC CELL
                       LATTICE CONSTANT A = 6.31854
                                B/A RATIO = 1.72297
                                C/A RATIO = 1.6357
                                    ibrav = 8
                        ROTATION MATRICES = 8
              PURE POINT GROUP OPERATIONS = 8
                   SPACE GROUP OPERATIONS = 8
                                       C2 = 3
                                       C3 = 0
                                       C4 = 0
                                       C6 = 0
                                       S1 = 3
                                       S3 = 0
                                       S4 = 0
                                       S6 = 0
                              POINT GROUP = D_2h
Warning : If the optimal symmetric configuration is not the input configuration, 
you have to manually change configurations, ABACUS would only calculate the input structure.
 DONE : SYMMETRY Time : 7.5678 (SEC)





 >>>>>>>>>>>>>>>>>>>>>>>>>>>>>>>>>>>>>>>>>>>>>>>>>>>>>>>>>>>>>>>>>>>>>>
 |                                                                    |
 | Setup K-points                                                     |
 | We setup the k-points according to input parameters.               |
 | The reduced k-points are set according to symmetry operations.     |
 | We treat the spin as another set of k-points.                      |
 |                                                                    |
 <<<<<<<<<<<<<<<<<<<<<<<<<<<<<<<<<<<<<<<<<<<<<<<<<<<<<<<<<<<<<<<<<<<<<<





 SETUP K-POINTS
                                    nspin = 1
                   Input type of k points = Monkhorst-Pack(Gamma)
                                   nkstot = 1
                               nkstot_ibz = 1
      IBZ             DirectX             DirectY             DirectZ              Weight    ibz2bz
        1                   0                   0                   0                   1         0
                               nkstot now = 1

  KPOINTS            DIRECT_X            DIRECT_Y            DIRECT_Z              WEIGHT
        1                   0                   0                   0                   1

           k-point number in this process = 1
       minimum distributed K point number = 1

  KPOINTS         CARTESIAN_X         CARTESIAN_Y         CARTESIAN_Z              WEIGHT
        1                   0                   0                   0                   2

  KPOINTS            DIRECT_X            DIRECT_Y            DIRECT_Z              WEIGHT
        1                   0                   0                   0                   2
 DONE : INIT K-POINTS Time : 7.57248 (SEC)

 DONE : INIT BASIS Time : 11.07 (SEC)

 DONE : INIT PHI Time : 11.0704 (SEC)


 SETUP NONLOCAL PSEUDOPOTENTIALS IN PLANE WAVE BASIS
 Li non-local projectors:
 Mg non-local projectors:
 Al non-local projectors:
      TOTAL NUMBER OF NONLOCAL PROJECTORS = 0

 nhm = 0, not allocate some matrix. DONE : LOCAL POTENTIAL Time : 46.1112 (SEC)


 Init Non-Local PseudoPotential table : 
 Init Non-Local-Pseudopotential done.
 DONE : NON-LOCAL POTENTIAL Time : 46.1143 (SEC)

Successful completion of Potential's registration : local
Successful completion of Potential's registration : hartree
Successful completion of Potential's registration : xc
                                 init_chg = atomic
 DONE : INIT POTENTIAL Time : 89.9686 (SEC)

 DONE : INIT OPTIMIZATION Time : 89.9923 (SEC)

 DONE : INIT KEDF Time : 90.0653 (SEC)


 charge density convergence is achieved
 final etot is -809.581 eV



 ><><><><><><><><><><><><><><><><><><><><><><

    TOTAL-FORCE (eV/Angstrom)

 ><><><><><><><><><><><><><><><><><><><><><><

     atom              x              y              z
      Li1              0    -0.02339792              0
      Li2              0    -0.02339792              0
      Mg1              0    -0.00900716              0
      Mg2              0    -0.01889862              0
      Mg3    +0.05763531    -0.01753428              0
      Mg4    +0.01612743    +0.00977983              0
      Mg5    -0.05763531    -0.01753428              0
      Mg6    -0.01612743    +0.00977983              0
      Mg7    +0.00546114    -0.02081512    +0.05422422
      Mg8    +0.00546114    -0.02081512    -0.05422422
      Mg9    -0.00546114    -0.02081512    +0.05422422
     Mg10    -0.00546114    -0.02081512    -0.05422422
     Mg11              0    +0.03365205    +0.16687254
     Mg12              0    +0.03365205    -0.16687254
     Mg13              0    +0.02164113    -0.01922889
     Mg14              0    +0.02164113    +0.01922889
     Mg15              0    -0.00900716              0
     Mg16              0    -0.01889862              0
     Mg17    +0.05763531    -0.01753428              0
     Mg18    +0.01612743    +0.00977983              0
     Mg19    -0.05763531    -0.01753428              0
     Mg20    -0.01612743    +0.00977983              0
     Mg21    +0.00546114    -0.02081512    +0.05422422
     Mg22    +0.00546114    -0.02081512    -0.05422422
     Mg23    -0.00546114    -0.02081512    +0.05422422
     Mg24    -0.00546114    -0.02081512    -0.05422422
     Mg25              0    +0.03365205    +0.16687254
     Mg26              0    +0.03365205    -0.16687254
     Mg27              0    +0.02164113    -0.01922889
     Mg28              0    +0.02164113    +0.01922889
      Al1              0    +0.03948673              0
      Al2              0    +0.03948673              0


 ><><><><><><><><><><><><><><><><><><><><><><

 TOTAL-STRESS (KBAR)

 ><><><><><><><><><><><><><><><><><><><><><><

       +4.746818      +0.000000      +0.000000
       +0.000000      +6.172769      +0.000000
       +0.000000      +0.000000      +2.129957
 TOTAL-PRESSURE: +4.349848 KBAR


 --------------------------------------------
 !FINAL_ETOT_IS -809.5813316779980369 eV
 --------------------------------------------






  |CLASS_NAME---------|NAME---------------|TIME(Sec)-----|CALLS----|AVG------|PER%-------
                                      total     +699.83166        21    +33.33   +100.00%
                 Driver         driver_line     +699.74808         1   +699.75    +99.99%
               PW_Basis      setuptransform       +5.79874         1     +5.80     +0.83%
                 mymath            heapsort       +1.26869       854     +0.00     +0.18%
               PW_Basis  setup_struc_factor       +3.49718         1     +3.50     +0.50%
              ppcell_vl           init_vloc      +35.03962         1    +35.04     +5.01%
                 Charge          atomic_rho      +37.89725         1    +37.90     +5.42%
               PW_Basis          recip2real     +141.96250      1682     +0.08    +20.29%
               PW_Basis    gathers_scatterp      +22.90055      1682     +0.01     +3.27%
              Potential            init_pot       +5.81811         1     +5.82     +0.83%
              Potential  update_from_charge     +388.80458       186     +2.09    +55.56%
              Potential         cal_fixed_v       +0.50974         1     +0.51     +0.07%
               PotLocal         cal_fixed_v       +0.50750         1     +0.51     +0.07%
              Potential           cal_v_eff     +388.29335       186     +2.09    +55.48%
           H_Hartree_pw           v_hartree      +38.74453       186     +0.21     +5.54%
               PW_Basis          real2recip     +152.18775      2051     +0.07    +21.75%
               PW_Basis    gatherp_scatters      +18.52876      2051     +0.01     +2.65%
                  PotXC           cal_v_eff     +347.37032       186     +1.87    +49.64%
          XC_Functional                v_xc     +292.45992        93     +3.14    +41.79%
          XC_Functional          v_xc_libxc     +344.24908       186     +1.85    +49.19%
             ESolver_OF                 Run     +575.65029         1   +575.65    +82.26%
             H_Ewald_pw       compute_ewald       +0.12844         1     +0.13     +0.02%
               Symmetry        rho_symmetry       +0.12053         1     +0.12     +0.02%
                KEDF_TF        tf_potential      +22.46539       185     +0.12     +3.21%
                KEDF_WT        wt_potential     +118.45151       185     +0.64    +16.93%
                KEDF_vW        vw_potential      +34.16268       185     +0.18     +4.88%
                 Forces       cal_force_loc       +1.59202         1     +1.59     +0.23%
                 Forces        cal_force_ew       +1.40486         1     +1.40     +0.20%
           OF_Stress_PW          cal_stress      +30.46443         1    +30.46     +4.35%
            Stress_Func          stress_ewa       +1.49623         1     +1.50     +0.21%
            Stress_Func          stress_gga       +1.07165         1     +1.07     +0.15%
            Stress_Func          stress_loc      +27.84051         1    +27.84     +3.98%
 ----------------------------------------------------------------------------------------

 CLASS_NAME---------|NAME---------------|MEMORY(MB)--------
                                         +76.1955
             PW_Basis           struc_fac       +28.4766
               Charge                 rho        +4.7461
               Charge            rho_save        +4.7461
               Charge                rhog        +4.7461
               Charge           rhog_save        +4.7461
               Charge               kin_r        +4.7461
               Charge          kin_r_save        +4.7461
               Charge            rho_core        +4.7461
               Charge           rhog_core        +4.7461
            Potential   v_effective_fixed        +4.7461
            Potential              vr_eff        +4.7461
 ----------------------------------------------------------

 Start  Time  : Mon May 15 11:36:12 2023
 Finish Time  : Mon May 15 11:47:52 2023
 Total  Time  : 0 h 11 mins 40 secs 
