 *********************************************************
 *                                                       *
 *                  WELCOME TO ABACUS v3.0               *
 *                                                       *
 *            'Atomic-orbital Based Ab-initio            *
 *                  Computation at UStc'                 *
 *                                                       *
 *          Website: http://abacus.ustc.edu.cn/          *
 *                                                       *
 *********************************************************
 Mon Mar  6 13:16:44 2023
 MAKE THE DIR         : OUT.blpstest/
Notice: symbol 'Li_locpsp' is not an element symbol!!!! set the covalent radius to be 0.
Notice: symbol 'mg_locpsp' is not an element symbol!!!! set the covalent radius to be 0.
 UNIFORM GRID DIM     : 36 * 36 * 36
 UNIFORM GRID DIM(BIG): 36 * 36 * 36
func,idXC_GGA_X_PBE 101
func,idXC_GGA_C_PBE 130
 DONE(0.191014   SEC) : SETUP UNITCELL
 DONE(0.220984   SEC) : SYMMETRY
 DONE(0.379123   SEC) : INIT K-POINTS
 ---------------------------------------------------------
 Self-consistent calculations for electrons
 ---------------------------------------------------------
 SPIN    KPOINTS         PROCESSORS  
 1       286             1           
 ---------------------------------------------------------
 Use plane wave basis
 ---------------------------------------------------------
 ELEMENT NATOM       XC          
 Li      1           
 Mg      3           
 ---------------------------------------------------------
 Initial plane wave basis and FFT box
 ---------------------------------------------------------
 DONE(0.496018   SEC) : INIT PLANEWAVE
 MEMORY FOR PSI (MB)  : 80.3328
 DONE(0.551367   SEC) : LOCAL POTENTIAL
 DONE(0.551397   SEC) : NON-LOCAL POTENTIAL
 DONE(0.551453   SEC) : INIT BASIS
 START CHARGE      : atomic
 DONE(0.618685   SEC) : INIT SCF
 ITER   ETOT(eV)       EDIFF(eV)      DRHO       TIME(s)    
 CG1    -7.898661e+01  0.000000e+00   2.244e-01  3.044e+01  
 CG2    -7.979944e+01  -8.128244e-01  1.649e-02  1.096e+01  
 CG3    -7.982966e+01  -3.022097e-02  4.257e-05  1.433e+01  
 CG4    -7.983181e+01  -2.152850e-03  1.594e-05  2.104e+01  
 CG5    -7.983181e+01  -7.971627e-07  1.879e-05  1.392e+01  
 CG6    -7.983185e+01  -4.092889e-05  3.367e-09  1.178e+01  
 CG7    -7.983186e+01  -4.192029e-07  8.976e-10  2.254e+01  

  |CLASS_NAME---------|NAME---------------|TIME(Sec)-----|CALLS----|AVG------|PER%-------
                       total               125.65         17        7.4       1e+02     %
   Driver              driver_line         125.64         1         1.3e+02   1e+02     %
   PW_Basis            setuptransform      0.16787        1         0.17      0.13      %
   ESolver_KS_PW       Run                 125.09         1         1.3e+02   1e+02     %
   Potential           update_from_charge  0.27783        8         0.035     0.22      %
   Potential           cal_v_eff           0.2768         8         0.035     0.22      %
   PotXC               cal_v_eff           0.25753        8         0.032     0.2       %
   XC_Functional       v_xc                81.233         4         20        65        %
   XC_Functional       v_xc_libxc          0.25545        8         0.032     0.2       %
   HSolverPW           solve               124.72         7         18        99        %
   DiagoIterAssist     diagH_subspace      21.996         2002      0.011     18        %
   OperatorPW          hPsi                111.42         71799     0.0016    89        %
   Operator            EkineticPW          0.44595        71799     6.2e-06   0.35      %
   Operator            VeffPW              110.72         71799     0.0015    88        %
   PW_Basis_K          recip2real          64.184         93500     0.00069   51        %
   PW_Basis_K          gathers_scatterp    5.7375         93500     6.1e-05   4.6       %
   PW_Basis_K          real2recip          46.212         85813     0.00054   37        %
   PW_Basis_K          gatherp_scatters    1.0833         85813     1.3e-05   0.86      %
   DiagoCG             diag_once           95.601         2002      0.048     76        %
   ElecStatePW         psiToRho            6.1848         7         0.88      4.9       %
 ----------------------------------------------------------------------------------------

 START  Time  : Mon Mar  6 13:16:44 2023
 FINISH Time  : Mon Mar  6 13:18:49 2023
 TOTAL  Time  : 1.2e+02
 SEE INFORMATION IN : OUT.blpstest/
