 *********************************************************
 *                                                       *
 *                  WELCOME TO ABACUS v3.0               *
 *                                                       *
 *            'Atomic-orbital Based Ab-initio            *
 *                  Computation at UStc'                 *
 *                                                       *
 *          Website: http://abacus.ustc.edu.cn/          *
 *                                                       *
 *********************************************************
 Mon Apr 17 15:14:00 2023
 MAKE THE DIR         : OUT.blpstest/
Notice: symbol 'mg_locpsp' is not an element symbol!!!! set the covalent radius to be 0.
 UNIFORM GRID DIM     : 30 * 30 * 30
 UNIFORM GRID DIM(BIG): 30 * 30 * 30
func,idXC_GGA_X_PBE 101
func,idXC_GGA_C_PBE 130
 DONE(0.1464     SEC) : SETUP UNITCELL
 DONE(0.201498   SEC) : SYMMETRY
 DONE(0.547223   SEC) : INIT K-POINTS
 ---------------------------------------------------------
 Self-consistent calculations for electrons
 ---------------------------------------------------------
 SPIN    KPOINTS         PROCESSORS  
 1       256             1           
 ---------------------------------------------------------
 Use plane wave basis
 ---------------------------------------------------------
 ELEMENT NATOM       XC          
 Mg      1           
 ---------------------------------------------------------
 Initial plane wave basis and FFT box
 ---------------------------------------------------------
 DONE(0.548436   SEC) : INIT BASIS
 DONE(0.548461   SEC) : INIT PHI
 DONE(0.604039   SEC) : LOCAL POTENTIAL
 DONE(0.604077   SEC) : NON-LOCAL POTENTIAL
 START CHARGE      : atomic
 DONE(0.70739    SEC) : INIT POTENTIAL
 DONE(0.707455   SEC) : INIT OPTIMIZATION
 DONE(0.708881   SEC) : INIT KEDF
======================== Running OFDFT ========================
Iter        Etot(Ha)          Theta      PotNorm     deltaE(Ha)
0     -8.435503651141e-01   2.000e-01   1.147e-01   -8.436e-01  
1     -8.871248413113e-01   9.439e-02   8.841e-02   -4.357e-02  
2     -8.886039041849e-01   1.432e-02   3.477e-02   -1.479e-03  
3     -8.889078666371e-01   6.007e-03   1.846e-02   -3.040e-04  
4     -8.890916480725e-01   7.909e-03   1.793e-02   -1.838e-04  
5     -8.891216416222e-01   1.122e-03   4.165e-03   -2.999e-05  
6     -8.891330367844e-01   2.471e-03   2.954e-04   -1.140e-05  
7     -8.891330498345e-01   2.117e-05   1.374e-04   -1.305e-08  
8     -8.891330539534e-01   1.920e-05   1.454e-04   -4.119e-09  

  |CLASS_NAME---------|NAME---------------|TIME(Sec)-----|CALLS----|AVG------|PER%-------
                       total               20.014         21        0.95      1e+02     %
   Driver              driver_line         20             1         20        1e+02     %
   PW_Basis            setuptransform      0.12062        1         0.12      0.6       %
   PW_Basis            recip2real          3.0966         1628      0.0019    15        %
   PW_Basis            gathers_scatterp    0.44306        1628      0.00027   2.2       %
   Potential           update_from_charge  12.633         181       0.07      63        %
   Potential           cal_v_eff           12.63          181       0.07      63        %
   H_Hartree_pw        v_hartree           1.0455         181       0.0058    5.2       %
   PW_Basis            real2recip          4.4764         1988      0.0023    22        %
   PW_Basis            gatherp_scatters    0.48673        1988      0.00024   2.4       %
   PotXC               cal_v_eff           11.498         181       0.064     57        %
   XC_Functional       v_xc                9.637          91        0.11      48        %
   XC_Functional       v_xc_libxc          11.212         181       0.062     56        %
   ESolver_OF          Run                 19.304         1         19        96        %
   KEDF_TF             tf_potential        1.0432         180       0.0058    5.2       %
   KEDF_WT             wt_potential        4.1964         180       0.023     21        %
   KEDF_vW             vw_potential        0.9545         180       0.0053    4.8       %
 ----------------------------------------------------------------------------------------

 START  Time  : Mon Apr 17 15:14:00 2023
 FINISH Time  : Mon Apr 17 15:14:20 2023
 TOTAL  Time  : 20
 SEE INFORMATION IN : OUT.blpstest/
