 *********************************************************
 *                                                       *
 *                  WELCOME TO ABACUS v3.0               *
 *                                                       *
 *            'Atomic-orbital Based Ab-initio            *
 *                  Computation at UStc'                 *
 *                                                       *
 *          Website: http://abacus.ustc.edu.cn/          *
 *                                                       *
 *********************************************************
 Wed Apr 26 09:43:29 2023
 MAKE THE DIR         : OUT.oftest/
Notice: symbol 'Li_locpsp' is not an element symbol!!!! set the covalent radius to be 0.
 UNIFORM GRID DIM     : 27 * 27 * 27
 UNIFORM GRID DIM(BIG): 27 * 27 * 27
func,idXC_GGA_X_PBE 101
func,idXC_GGA_C_PBE 130
 DONE(0.113937   SEC) : SETUP UNITCELL
 DONE(0.168818   SEC) : SYMMETRY
 DONE(0.169069   SEC) : INIT K-POINTS
 ---------------------------------------------------------
 Self-consistent calculations for electrons
 ---------------------------------------------------------
 SPIN    KPOINTS         PROCESSORS  
 1       1               1           
 ---------------------------------------------------------
 Use plane wave basis
 ---------------------------------------------------------
 ELEMENT NATOM       XC          
 Li      1           
 ---------------------------------------------------------
 Initial plane wave basis and FFT box
 ---------------------------------------------------------
 DONE(0.170207   SEC) : INIT BASIS
 DONE(0.170233   SEC) : INIT PHI
 DONE(0.210132   SEC) : LOCAL POTENTIAL
 DONE(0.210173   SEC) : NON-LOCAL POTENTIAL
 START CHARGE      : atomic
 DONE(0.287938   SEC) : INIT POTENTIAL
 DONE(0.288031   SEC) : INIT OPTIMIZATION
Default type: double
nnode = 10
nlayer = 3
feg_net_F = 0.540933
 DONE(0.328502   SEC) : INIT KEDF
======================== Running OFDFT ========================
Iter        Etot(Ha)          Theta      PotNorm     deltaE(Ha)
0     -2.635468542483e-01   2.000e-01   8.915e-02   -2.635e-01  
1     -2.760021110983e-01   8.407e-02   2.300e-02   -1.246e-02  
2     -2.761037374742e-01   5.377e-03   1.670e-03   -1.016e-04  
3     -2.761042030362e-01   3.165e-04   3.858e-04   -4.656e-07  
4     -2.761042313406e-01   6.989e-05   2.272e-04   -2.830e-08  

  |CLASS_NAME---------|NAME---------------|TIME(Sec)-----|CALLS----|AVG------|PER%-------
                       total               96.769         21        4.6       1e+02     %
   Driver              driver_line         96.757         1         97        1e+02     %
   PW_Basis            recip2real          2.269          2348      0.00097   2.3       %
   PW_Basis            gathers_scatterp    0.16729        2348      7.1e-05   0.17      %
   Potential           update_from_charge  3.1777         118       0.027     3.3       %
   Potential           cal_v_eff           3.1762         118       0.027     3.3       %
   H_Hartree_pw        v_hartree           0.26366        118       0.0022    0.27      %
   PW_Basis            real2recip          2.2466         2348      0.00096   2.3       %
   PotXC               cal_v_eff           2.9033         118       0.025     3         %
   XC_Functional       v_xc                47.969         59        0.81      50        %
   XC_Functional       v_xc_libxc          2.898          118       0.025     3         %
   ESolver_OF          Run                 96.439         1         96        1e+02     %
   KEDF_vW             vw_potential        0.25765        117       0.0022    0.27      %
 ----------------------------------------------------------------------------------------

 START  Time  : Wed Apr 26 09:43:29 2023
 FINISH Time  : Wed Apr 26 09:45:06 2023
 TOTAL  Time  : 97
 SEE INFORMATION IN : OUT.oftest/
