 *********************************************************
 *                                                       *
 *                  WELCOME TO ABACUS v3.0               *
 *                                                       *
 *            'Atomic-orbital Based Ab-initio            *
 *                  Computation at UStc'                 *
 *                                                       *
 *          Website: http://abacus.ustc.edu.cn/          *
 *                                                       *
 *********************************************************
 Wed Dec 28 12:18:12 2022
 MAKE THE DIR         : OUT.blpstest/
Notice: symbol 'al_locpsp' is not an element symbol!!!! set the covalent radius to be 0.
 UNIFORM GRID DIM     : 27 * 27 * 27
 UNIFORM GRID DIM(BIG): 27 * 27 * 27
func,idXC_GGA_X_PBE 101
func,idXC_GGA_C_PBE 130
 DONE(0.0996932  SEC) : SETUP UNITCELL
 DONE(0.156418   SEC) : SYMMETRY
 DONE(0.501306   SEC) : INIT K-POINTS
 ---------------------------------------------------------
 Self-consistent calculations for electrons
 ---------------------------------------------------------
 SPIN    KPOINTS         PROCESSORS  
 1       256             1           
 ---------------------------------------------------------
 Use plane wave basis
 ---------------------------------------------------------
 ELEMENT NATOM       XC          
 Al      1           
 ---------------------------------------------------------
 Initial plane wave basis and FFT box
 ---------------------------------------------------------
 DONE(0.558138   SEC) : INIT PLANEWAVE
 MEMORY FOR PSI (MB)  : 52.5586
 DONE(0.569813   SEC) : LOCAL POTENTIAL
 DONE(0.569859   SEC) : NON-LOCAL POTENTIAL
 DONE(0.569934   SEC) : INIT BASIS
 START CHARGE      : atomic
 DONE(0.611352   SEC) : INIT SCF
 ITER   ETOT(eV)       EDIFF(eV)      DRHO       TIME(s)    
 CG1    -5.694362e+01  0.000000e+00   8.384e-02  5.251e+01  
 CG2    -5.719020e+01  -2.465763e-01  6.605e-03  1.767e+01  
 CG3    -5.719672e+01  -6.523915e-03  3.060e-05  2.234e+01  
 CG4    -5.719704e+01  -3.120677e-04  2.175e-06  3.082e+01  
 CG5    -5.719705e+01  -1.065161e-05  8.558e-08  1.995e+01  
 CG6    -5.719705e+01  -1.284718e-07  1.223e-08  2.458e+01  
 CG7    -5.719705e+01  -9.660058e-10  1.122e-09  1.859e+01  
 CG8    -5.719705e+01  7.250210e-10   1.848e-11  1.978e+01  

  |CLASS_NAME---------|NAME---------------|TIME(Sec)-----|CALLS----|AVG------|PER%-------
                       total               206.88         17        12        1e+02     %
   Driver              driver_line         206.87         1         2.1e+02   1e+02     %
   ESolver_KS_PW       Run                 206.3          1         2.1e+02   1e+02     %
   Potential           update_from_charge  0.24693        9         0.027     0.12      %
   Potential           cal_v_eff           0.24596        9         0.027     0.12      %
   PotXC               cal_v_eff           0.22534        9         0.025     0.11      %
   XC_Functional       v_xc                113.4          5         23        55        %
   XC_Functional       v_xc_libxc          0.22465        9         0.025     0.11      %
   HSolverPW           solve               205.97         8         26        1e+02     %
   DiagoIterAssist     diagH_subspace      43.824         2048      0.021     21        %
   OperatorPW          hPsi                192.5          111978    0.0017    93        %
   Operator            EkineticPW          0.59717        111978    5.3e-06   0.29      %
   Operator            VeffPW              191.29         111978    0.0017    92        %
   PW_Basis_K          recip2real          93.853         143889    0.00065   45        %
   PW_Basis_K          gathers_scatterp    6.0834         143889    4.2e-05   2.9       %
   PW_Basis_K          real2recip          90.889         140650    0.00065   44        %
   PW_Basis_K          gatherp_scatters    1.6041         140650    1.1e-05   0.78      %
   DiagoIterAssist     LAPACK_subspace     0.41055        2048      0.0002    0.2       %
   DiagoCG             diag_once           158.6          2048      0.077     77        %
   ElecStatePW         psiToRho            2.2542         8         0.28      1.1       %
 ----------------------------------------------------------------------------------------

 START  Time  : Wed Dec 28 12:18:12 2022
 FINISH Time  : Wed Dec 28 12:21:39 2022
 TOTAL  Time  : 2.1e+02
 SEE INFORMATION IN : OUT.blpstest/
