 *********************************************************
 *                                                       *
 *                  WELCOME TO ABACUS v3.0               *
 *                                                       *
 *            'Atomic-orbital Based Ab-initio            *
 *                  Computation at UStc'                 *
 *                                                       *
 *          Website: http://abacus.ustc.edu.cn/          *
 *                                                       *
 *********************************************************
 Tue May  2 12:50:59 2023
 MAKE THE DIR         : OUT.blpstest/
Notice: symbol 'mg_locpsp' is not an element symbol!!!! set the covalent radius to be 0.
 UNIFORM GRID DIM     : 32 * 32 * 32
 UNIFORM GRID DIM(BIG): 32 * 32 * 32
func,idXC_GGA_X_PBE 101
func,idXC_GGA_C_PBE 130
 DONE(0.179626   SEC) : SETUP UNITCELL
 DONE(0.23471    SEC) : SYMMETRY
 DONE(0.234925   SEC) : INIT K-POINTS
 ---------------------------------------------------------
 Self-consistent calculations for electrons
 ---------------------------------------------------------
 SPIN    KPOINTS         PROCESSORS  
 1       1               1           
 ---------------------------------------------------------
 Use plane wave basis
 ---------------------------------------------------------
 ELEMENT NATOM       XC          
 Mg      1           
 ---------------------------------------------------------
 Initial plane wave basis and FFT box
 ---------------------------------------------------------
 DONE(0.236687   SEC) : INIT BASIS
 DONE(0.236713   SEC) : INIT PHI
 DONE(0.295753   SEC) : LOCAL POTENTIAL
 DONE(0.295785   SEC) : NON-LOCAL POTENTIAL
 START CHARGE      : atomic
 DONE(0.408903   SEC) : INIT POTENTIAL
 DONE(0.409094   SEC) : INIT OPTIMIZATION
Default type: double
 DONE(0.411055   SEC) : INIT KEDF
======================== Running OFDFT ========================
Iter        Etot(Ha)          Theta      PotNorm     deltaE(Ha)
0     -8.476851757456e-01   2.000e-01   1.065e-01   -8.477e-01  
1     -8.476855554986e-01   3.259e-04   1.066e-01   -3.798e-07  
2     -8.900817684307e-01   8.505e-02   5.481e-02   -4.240e-02  
3     -8.906585797387e-01   6.800e-03   2.187e-02   -5.768e-04  
4     -8.908126552958e-01   3.619e-03   1.298e-02   -1.541e-04  
5     -8.909415297988e-01   6.996e-03   3.305e-03   -1.289e-04  
6     -8.909453816506e-01   1.076e-03   2.356e-04   -3.852e-06  
7     -8.909453977536e-01   3.542e-05   1.025e-04   -1.610e-08  
8     -8.909454062281e-01   6.147e-05   7.005e-06   -8.475e-09  

  |CLASS_NAME---------|NAME---------------|TIME(Sec)-----|CALLS----|AVG------|PER%-------
                       total               34.323         21        1.6       1e+02     %
   Driver              driver_line         34.309         1         34        1e+02     %
   PW_Basis            setuptransform      0.14666        1         0.15      0.43      %
   PW_Basis            recip2real          6.8195         2673      0.0026    20        %
   PW_Basis            gathers_scatterp    1.3441         2673      0.0005    3.9       %
   Potential           update_from_charge  20.626         206       0.1       60        %
   Potential           cal_v_eff           20.622         206       0.1       60        %
   H_Hartree_pw        v_hartree           1.7543         206       0.0085    5.1       %
   PW_Basis            real2recip          7.0313         2673      0.0026    20        %
   PW_Basis            gatherp_scatters    1.0262         2673      0.00038   3         %
   PotXC               cal_v_eff           18.721         206       0.091     55        %
   XC_Functional       v_xc                16.914         103       0.16      49        %
   XC_Functional       v_xc_libxc          18.415         206       0.089     54        %
   ESolver_OF          Run                 33.909         1         34        99        %
   KEDF_LKT            LKT_potential       10.678         205       0.052     31        %
   KEDF_vW             vw_potential        1.5307         205       0.0075    4.5       %
 ----------------------------------------------------------------------------------------

 START  Time  : Tue May  2 12:50:59 2023
 FINISH Time  : Tue May  2 12:51:33 2023
 TOTAL  Time  : 34
 SEE INFORMATION IN : OUT.blpstest/
