 *********************************************************
 *                                                       *
 *                  WELCOME TO ABACUS v3.0               *
 *                                                       *
 *            'Atomic-orbital Based Ab-initio            *
 *                  Computation at UStc'                 *
 *                                                       *
 *          Website: http://abacus.ustc.edu.cn/          *
 *                                                       *
 *********************************************************
 Mon Mar  6 13:47:53 2023
 MAKE THE DIR         : OUT.blpstest/
Notice: symbol 'Li_locpsp' is not an element symbol!!!! set the covalent radius to be 0.
Notice: symbol 'al_locpsp' is not an element symbol!!!! set the covalent radius to be 0.
 UNIFORM GRID DIM     : 36 * 36 * 36
 UNIFORM GRID DIM(BIG): 36 * 36 * 36
func,idXC_GGA_X_PBE 101
func,idXC_GGA_C_PBE 130
 DONE(0.190511   SEC) : SETUP UNITCELL
 DONE(0.221947   SEC) : SYMMETRY
 DONE(0.383605   SEC) : INIT K-POINTS
 ---------------------------------------------------------
 Self-consistent calculations for electrons
 ---------------------------------------------------------
 SPIN    KPOINTS         PROCESSORS  
 1       286             1           
 ---------------------------------------------------------
 Use plane wave basis
 ---------------------------------------------------------
 ELEMENT NATOM       XC          
 Li      1           
 Al      3           
 ---------------------------------------------------------
 Initial plane wave basis and FFT box
 ---------------------------------------------------------
 DONE(0.50225    SEC) : INIT PLANEWAVE
 MEMORY FOR PSI (MB)  : 89.2354
 DONE(0.553638   SEC) : LOCAL POTENTIAL
 DONE(0.553665   SEC) : NON-LOCAL POTENTIAL
 DONE(0.553711   SEC) : INIT BASIS
 START CHARGE      : atomic
 DONE(0.61967    SEC) : INIT SCF
 ITER   ETOT(eV)       EDIFF(eV)      DRHO       TIME(s)    
 CG1    -1.788732e+02  0.000000e+00   7.099e-01  3.563e+01  
 CG2    -1.810008e+02  -2.127669e+00  5.682e-02  1.440e+01  
 CG3    -1.811787e+02  -1.779091e-01  7.147e-03  1.660e+01  
 CG4    -1.811962e+02  -1.749959e-02  2.088e-05  1.613e+01  
 CG5    -1.811971e+02  -8.961439e-04  1.612e-05  2.294e+01  
 CG6    -1.811972e+02  -3.846223e-05  4.287e-08  1.214e+01  
 CG7    -1.811972e+02  -3.055840e-07  1.072e-07  1.928e+01  
 CG8    -1.811972e+02  -1.087630e-07  6.708e-09  1.321e+01  
 CG9    -1.811972e+02  -5.323129e-09  5.249e-10  1.241e+01  

  |CLASS_NAME---------|NAME---------------|TIME(Sec)-----|CALLS----|AVG------|PER%-------
                       total               163.38         17        9.6       1e+02     %
   Driver              driver_line         163.36         1         1.6e+02   1e+02     %
   PW_Basis            setuptransform      0.16728        1         0.17      0.1       %
   ESolver_KS_PW       Run                 162.81         1         1.6e+02   1e+02     %
   Potential           update_from_charge  0.32741        10        0.033     0.2       %
   Potential           cal_v_eff           0.32636        10        0.033     0.2       %
   PotXC               cal_v_eff           0.3049         10        0.03      0.19      %
   XC_Functional       v_xc                106.87         5         21        65        %
   XC_Functional       v_xc_libxc          0.30236        10        0.03      0.19      %
   HSolverPW           solve               162.38         9         18        99        %
   DiagoIterAssist     diagH_subspace      30.223         2574      0.012     18        %
   OperatorPW          hPsi                145.01         93870     0.0015    89        %
   Operator            EkineticPW          0.46899        93870     5e-06     0.29      %
   Operator            VeffPW              144.26         93870     0.0015    88        %
   PW_Basis_K          recip2real          81.359         128219    0.00063   50        %
   PW_Basis_K          gathers_scatterp    7.403          128219    5.8e-05   4.5       %
   PW_Basis_K          real2recip          64.837         114462    0.00057   40        %
   PW_Basis_K          gatherp_scatters    1.3793         114462    1.2e-05   0.84      %
   DiagoIterAssist     LAPACK_subspace     0.11747        2574      4.6e-05   0.072     %
   DiagoCG             diag_once           121.4          2574      0.047     74        %
   ElecStatePW         psiToRho            9.7102         9         1.1       5.9       %
 ----------------------------------------------------------------------------------------

 START  Time  : Mon Mar  6 13:47:53 2023
 FINISH Time  : Mon Mar  6 13:50:36 2023
 TOTAL  Time  : 1.6e+02
 SEE INFORMATION IN : OUT.blpstest/
