 *********************************************************
 *                                                       *
 *                  WELCOME TO ABACUS v3.0               *
 *                                                       *
 *            'Atomic-orbital Based Ab-initio            *
 *                  Computation at UStc'                 *
 *                                                       *
 *          Website: http://abacus.ustc.edu.cn/          *
 *                                                       *
 *********************************************************
 Wed Apr 26 05:32:37 2023
 MAKE THE DIR         : OUT.oftest/
Notice: symbol 'mg_locpsp' is not an element symbol!!!! set the covalent radius to be 0.
 UNIFORM GRID DIM     : 27 * 27 * 27
 UNIFORM GRID DIM(BIG): 27 * 27 * 27
func,idXC_GGA_X_PBE 101
func,idXC_GGA_C_PBE 130
 DONE(0.120342   SEC) : SETUP UNITCELL
 DONE(0.17471    SEC) : SYMMETRY
 DONE(0.174964   SEC) : INIT K-POINTS
 ---------------------------------------------------------
 Self-consistent calculations for electrons
 ---------------------------------------------------------
 SPIN    KPOINTS         PROCESSORS  
 1       1               1           
 ---------------------------------------------------------
 Use plane wave basis
 ---------------------------------------------------------
 ELEMENT NATOM       XC          
 Mg      1           
 ---------------------------------------------------------
 Initial plane wave basis and FFT box
 ---------------------------------------------------------
 DONE(0.176183   SEC) : INIT BASIS
 DONE(0.17621    SEC) : INIT PHI
 DONE(0.214908   SEC) : LOCAL POTENTIAL
 DONE(0.214947   SEC) : NON-LOCAL POTENTIAL
 START CHARGE      : atomic
 DONE(0.291344   SEC) : INIT POTENTIAL
 DONE(0.291414   SEC) : INIT OPTIMIZATION
Default type: double
nnode = 10
nlayer = 3
feg_net_F = 0.540933
 DONE(0.340064   SEC) : INIT KEDF
======================== Running OFDFT ========================
Iter        Etot(Ha)          Theta      PotNorm     deltaE(Ha)
0     -8.178048111686e-01   2.000e-01   1.469e-01   -8.178e-01  
1     -8.809074026711e-01   1.276e-01   1.057e-01   -6.310e-02  
2     -8.830011869182e-01   1.762e-02   3.650e-02   -2.094e-03  
3     -8.830742821699e-01   2.296e-03   1.472e-02   -7.310e-05  
4     -8.830821151759e-01   2.103e-04   5.003e-03   -7.833e-06  
5     -8.830849425142e-01   4.343e-04   2.052e-03   -2.827e-06  
6     -8.830880645962e-01   1.300e-03   1.867e-04   -3.122e-06  
7     -8.830880790625e-01   6.236e-05   4.716e-05   -1.447e-08  
8     -8.830880797079e-01   1.019e-05   2.737e-05   -6.454e-10  

  |CLASS_NAME---------|NAME---------------|TIME(Sec)-----|CALLS----|AVG------|PER%-------
                       total               175.62         21        8.4       1e+02     %
   Driver              driver_line         175.6          1         1.8e+02   1e+02     %
   PW_Basis            recip2real          4.1332         4148      0.001     2.4       %
   PW_Basis            gathers_scatterp    0.27908        4148      6.7e-05   0.16      %
   Potential           update_from_charge  5.7072         208       0.027     3.2       %
   Potential           cal_v_eff           5.7052         208       0.027     3.2       %
   H_Hartree_pw        v_hartree           0.47774        208       0.0023    0.27      %
   PW_Basis            real2recip          4.0508         4148      0.00098   2.3       %
   PW_Basis            gatherp_scatters    0.16931        4148      4.1e-05   0.096     %
   PotXC               cal_v_eff           5.2097         208       0.025     3         %
   XC_Functional       v_xc                87.233         104       0.84      50        %
   XC_Functional       v_xc_libxc          5.2002         208       0.025     3         %
   ESolver_OF          Run                 175.28         1         1.8e+02   1e+02     %
   KEDF_vW             vw_potential        0.46641        207       0.0023    0.27      %
 ----------------------------------------------------------------------------------------

 START  Time  : Wed Apr 26 05:32:37 2023
 FINISH Time  : Wed Apr 26 05:35:32 2023
 TOTAL  Time  : 1.8e+02
 SEE INFORMATION IN : OUT.oftest/
