 *********************************************************
 *                                                       *
 *                  WELCOME TO ABACUS v3.0               *
 *                                                       *
 *            'Atomic-orbital Based Ab-initio            *
 *                  Computation at UStc'                 *
 *                                                       *
 *          Website: http://abacus.ustc.edu.cn/          *
 *                                                       *
 *********************************************************
 Wed Dec 28 12:33:45 2022
 MAKE THE DIR         : OUT.blpstest/
Notice: symbol 'Li_locpsp' is not an element symbol!!!! set the covalent radius to be 0.
 UNIFORM GRID DIM     : 30 * 30 * 30
 UNIFORM GRID DIM(BIG): 30 * 30 * 30
func,idXC_GGA_X_PBE 101
func,idXC_GGA_C_PBE 130
 DONE(0.130571   SEC) : SETUP UNITCELL
 DONE(0.183932   SEC) : SYMMETRY
 DONE(0.532093   SEC) : INIT K-POINTS
 ---------------------------------------------------------
 Self-consistent calculations for electrons
 ---------------------------------------------------------
 SPIN    KPOINTS         PROCESSORS  
 1       256             1           
 ---------------------------------------------------------
 Use plane wave basis
 ---------------------------------------------------------
 ELEMENT NATOM       XC          
 Li      1           
 ---------------------------------------------------------
 Initial plane wave basis and FFT box
 ---------------------------------------------------------
 DONE(0.607333   SEC) : INIT PLANEWAVE
 MEMORY FOR PSI (MB)  : 20.625
 DONE(0.622039   SEC) : LOCAL POTENTIAL
 DONE(0.622094   SEC) : NON-LOCAL POTENTIAL
 DONE(0.622192   SEC) : INIT BASIS
 START CHARGE      : atomic
 DONE(0.678457   SEC) : INIT SCF
 ITER   ETOT(eV)       EDIFF(eV)      DRHO       TIME(s)    
 CG1    -7.461883e+00  0.000000e+00   9.790e-03  2.542e+01  
 CG2    -7.545884e+00  -8.400117e-02  1.090e-03  6.877e+00  
 CG3    -7.546286e+00  -4.016319e-04  1.355e-07  8.111e+00  
 CG4    -7.546303e+00  -1.746781e-05  5.725e-08  1.651e+01  
 CG5    -7.546304e+00  -5.560432e-07  3.268e-09  9.688e+00  
 CG6    -7.546304e+00  -8.811621e-09  4.797e-11  7.458e+00  

  |CLASS_NAME---------|NAME---------------|TIME(Sec)-----|CALLS----|AVG------|PER%-------
                       total               74.763         17        4.4       1e+02     %
   Driver              driver_line         74.751         1         75        1e+02     %
   PW_Basis            setuptransform      0.11372        1         0.11      0.15      %
   ESolver_KS_PW       Run                 74.134         1         74        99        %
   Potential           update_from_charge  0.26749        7         0.038     0.36      %
   Potential           cal_v_eff           0.26635        7         0.038     0.36      %
   PotXC               cal_v_eff           0.24514        7         0.035     0.33      %
   XC_Functional       v_xc                43.222         4         11        58        %
   XC_Functional       v_xc_libxc          0.24465        7         0.035     0.33      %
   HSolverPW           solve               73.772         7         11        99        %
   DiagoIterAssist     diagH_subspace      12.626         1536      0.0082    17        %
   OperatorPW          hPsi                69.283         36725     0.0019    93        %
   Operator            EkineticPW          0.22352        36725     6.1e-06   0.3       %
   Operator            VeffPW              68.842         36725     0.0019    92        %
   PW_Basis_K          recip2real          35.175         43966     0.0008    47        %
   PW_Basis_K          gathers_scatterp    2.447          43966     5.6e-05   3.3       %
   PW_Basis_K          real2recip          30.719         42869     0.00072   41        %
   PW_Basis_K          gatherp_scatters    0.63291        42869     1.5e-05   0.85      %
   DiagoIterAssist     LAPACK_subspace     0.10198        1536      6.6e-05   0.14      %
   DiagoCG             diag_once           59.528         1792      0.033     80        %
   ElecStatePW         psiToRho            1.0185         7         0.15      1.4       %
 ----------------------------------------------------------------------------------------

 START  Time  : Wed Dec 28 12:33:45 2022
 FINISH Time  : Wed Dec 28 12:35:00 2022
 TOTAL  Time  : 75
 SEE INFORMATION IN : OUT.blpstest/
