                                                                                     
                             WELCOME TO ABACUS                                       
                                                                                     
               'Atomic-orbital Based Ab-initio Computation at UStc'                  
                                                                                     
                     Website: http://abacus.ustc.edu.cn/                             
                                                                                     
    Version: Parallel, in development
    Processor Number is 1
    Start Time is Mon Sep  5 14:20:48 2022
                                                                                     
 ------------------------------------------------------------------------------------

 READING GENERAL INFORMATION
                           global_out_dir = OUT.blpstest/
                           global_in_card = INPUT
                               pseudo_dir = 
                              orbital_dir = 
                              pseudo_type = auto
                                    DRANK = 1
                                    DSIZE = 1
                                   DCOLOR = 1
                                    GRANK = 1
                                    GSIZE = 1
 The esolver type has been set to : ksdft_pw




 >>>>>>>>>>>>>>>>>>>>>>>>>>>>>>>>>>>>>>>>>>>>>>>>>>>>>>>>>>>>>>>>>>>>>>
 |                                                                    |
 | Reading atom information in unitcell:                              |
 | From the input file and the structure file we know the number of   |
 | different elments in this unitcell, then we list the detail        |
 | information for each element, especially the zeta and polar atomic |
 | orbital number for each element. The total atom number is counted. |
 | We calculate the nearest atom distance for each atom and show the  |
 | Cartesian and Direct coordinates for each atom. We list the file   |
 | address for atomic orbitals. The volume and the lattice vectors    |
 | in real and reciprocal space is also shown.                        |
 |                                                                    |
 <<<<<<<<<<<<<<<<<<<<<<<<<<<<<<<<<<<<<<<<<<<<<<<<<<<<<<<<<<<<<<<<<<<<<<




 READING UNITCELL INFORMATION
                                    ntype = 1
                 atom label for species 1 = Mg
                  lattice constant (Bohr) = 5.89311
              lattice constant (Angstrom) = 3.1185

 READING ATOM TYPE 1
                               atom label = Mg
                      L=0, number of zeta = 1
                      L=1, number of zeta = 1
                      L=2, number of zeta = 1
             number of atom for this type = 2
                      start magnetization = FALSE
                      start magnetization = FALSE

                        TOTAL ATOM NUMBER = 2

 DIRECT COORDINATES
         atom                   x                   y                   z                 mag                  vx                  vy                  vz
     taud_Mg1                   0                   0                   0                   0                   0                   0                   0
     taud_Mg2            0.666667            0.333333                 0.5                   0                   0                   0                   0


                          Volume (Bohr^3) = 289.864
                             Volume (A^3) = 42.9533

 Lattice vectors: (Cartesian coordinate: in unit of a_0)
                   +1                  +0                  +0
                 -0.5           +0.866025                  +0
                   +0                  +0            +1.63542
 Reciprocal vectors: (Cartesian coordinate: in unit of 2 pi/a_0)
                   +1            +0.57735                  -0
                   +0             +1.1547                  -0
                   +0                  -0           +0.611463




 >>>>>>>>>>>>>>>>>>>>>>>>>>>>>>>>>>>>>>>>>>>>>>>>>>>>>>>>>>>>>>>>>>>>>>
 |                                                                    |
 | Reading pseudopotentials files:                                    |
 | The pseudopotential file is in UPF format. The 'NC' indicates that |
 | the type of pseudopotential is 'norm conserving'. Functional of    |
 | exchange and correlation is decided by 4 given parameters in UPF   |
 | file.  We also read in the 'core correction' if there exists.      |
 | Also we can read the valence electrons number and the maximal      |
 | angular momentum used in this pseudopotential. We also read in the |
 | trail wave function, trail atomic density and local-pseudopotential|
 | on logrithmic grid. The non-local pseudopotential projector is also|
 | read in if there is any.                                           |
 |                                                                    |
 <<<<<<<<<<<<<<<<<<<<<<<<<<<<<<<<<<<<<<<<<<<<<<<<<<<<<<<<<<<<<<<<<<<<<<




                PAO radial cut off (Bohr) = 15

 Read in pseudopotential file is Mg.pz-n-vbc.UPF
                     pseudopotential type = NC
          exchange-correlation functional = PZ
                 nonlocal core correction = 1
                        valence electrons = 2
                                     lmax = 1
                           number of zeta = 2
                     number of projectors = 2
                           L of projector = 0
                           L of projector = 1
     initial pseudo atomic orbital number = 8
                                   NLOCAL = 18




 >>>>>>>>>>>>>>>>>>>>>>>>>>>>>>>>>>>>>>>>>>>>>>>>>>>>>>>>>>>>>>>>>>>>>>
 |                                                                    |
 | Setup plane waves of charge/potential:                             |
 | Use the energy cutoff and the lattice vectors to generate the      |
 | dimensions of FFT grid. The number of FFT grid on each processor   |
 | is 'nrxx'. The number of plane wave basis in reciprocal space is   |
 | different for charege/potential and wave functions. We also set    |
 | the 'sticks' for the parallel of FFT. The number of plane waves    |
 | is 'npw' in each processor.                                        |
 <<<<<<<<<<<<<<<<<<<<<<<<<<<<<<<<<<<<<<<<<<<<<<<<<<<<<<<<<<<<<<<<<<<<<<





 SETUP THE PLANE WAVE BASIS
 energy cutoff for charge/potential (unit:Ry) = 240
          [fft grid for charge/potential] = 30, 30, 48
                      [fft grid division] = 1, 1, 1
      [big fft grid for charge/potential] = 30, 30, 48
                                     nbxx = 43200
                                     nrxx = 43200

 SETUP PLANE WAVES FOR CHARGE/POTENTIAL
                    number of plane waves = 18317
                         number of sticks = 583

 PARALLEL PW FOR CHARGE/POTENTIAL
     PROC   COLUMNS(POT)             PW
        1            583          18317
 --------------- sum -------------------
        1            583          18317
                            number of |g| = 935
                                  max |g| = 210.973
                                  min |g| = 0

 SETUP THE ELECTRONS NUMBER
            electron number of element Mg = 2
      total electron number of element Mg = 4
                           occupied bands = 2
                                   NBANDS = 4
 DONE : SETUP UNITCELL Time : 0.0583245 (SEC)





 >>>>>>>>>>>>>>>>>>>>>>>>>>>>>>>>>>>>>>>>>>>>>>>>>>>>>>>>>>>>>>>>>>>>>>
 |                                                                    |
 | Doing symmetry analysis:                                           |
 | We calculate the norm of 3 vectors and the angles between them,    |
 | the type of Bravais lattice is given. We can judge if the unticell |
 | is a primitive cell. Finally we give the point group operation for |
 | this unitcell. We we use the point group operations to do symmetry |
 | analysis on given k-point mesh and the charge density.             |
 |                                                                    |
 <<<<<<<<<<<<<<<<<<<<<<<<<<<<<<<<<<<<<<<<<<<<<<<<<<<<<<<<<<<<<<<<<<<<<<




 LATTICE VECTORS: (CARTESIAN COORDINATE: IN UNIT OF A0)
                   +1                  +0                  +0
                 -0.5           +0.866025                  +0
                   +0                  +0            +1.63542
                       right hand lattice = 1
                                   NORM_A = 1
                                   NORM_B = 1
                                   NORM_C = 1.63542
                           ALPHA (DEGREE) = 120
                           BETA  (DEGREE) = 90
                           GAMMA (DEGREE) = 90
                             BRAVAIS TYPE = 4
                     BRAVAIS LATTICE NAME = 04. Hexagonal cell
                                    IBRAV = 4
                                  BRAVAIS = HEXAGONAL CELL
                       LATTICE CONSTANT A = 5.57418
                                C/A RATIO = 0.663979
                                    ibrav = 4
                        ROTATION MATRICES = 24
              PURE POINT GROUP OPERATIONS = 12
                   SPACE GROUP OPERATIONS = 12
                                       C2 = 3
                                       C3 = 2
                                       C4 = 0
                                       C6 = 0
                                       S1 = 4
                                       S3 = 2
                                       S4 = 0
                                       S6 = 0
                              POINT GROUP = D_3h
Warning : If the optimal symmetric configuration is not the input configuration, 
you have to manually change configurations, ABACUS would only calculate the input structure!
 DONE : SYMMETRY Time : 0.0977489 (SEC)





 >>>>>>>>>>>>>>>>>>>>>>>>>>>>>>>>>>>>>>>>>>>>>>>>>>>>>>>>>>>>>>>>>>>>>>
 |                                                                    |
 | Setup K-points                                                     |
 | We setup the k-points according to input parameters.               |
 | The reduced k-points are set according to symmetry operations.     |
 | We treat the spin as another set of k-points.                      |
 |                                                                    |
 <<<<<<<<<<<<<<<<<<<<<<<<<<<<<<<<<<<<<<<<<<<<<<<<<<<<<<<<<<<<<<<<<<<<<<





 SETUP K-POINTS
                                    nspin = 1
                   Input type of k points = Monkhorst-Pack(Gamma)
                                   nkstot = 1728
                               nkstot_ibz = 133
      IBZ             DirectX             DirectY             DirectZ              Weight    ibz2bz
        1                   0                   0                   0         0.000578704         0
        2            0.916667           0.0833333                   0          0.00347222         1
        3            0.833333            0.166667                   0          0.00347222         2
        4                0.75                0.25                   0          0.00347222         3
        5            0.666667            0.333333                   0          0.00347222         4
        6            0.583333            0.416667                   0          0.00347222         5
        7                 0.5                 0.5                   0          0.00173611         6
        8            0.916667            0.916667                   0          0.00347222        13
        9            0.916667            0.833333                   0          0.00694444        14
       10            0.916667                0.75                   0          0.00694444        15
       11            0.916667            0.666667                   0          0.00694444        16
       12            0.916667            0.583333                   0          0.00694444        17
       13            0.833333            0.833333                   0          0.00347222        26
       14            0.833333                0.75                   0          0.00694444        27
       15            0.833333            0.666667                   0          0.00694444        28
       16            0.833333            0.583333                   0          0.00347222        29
       17                0.75                0.75                   0          0.00347222        39
       18                0.75            0.666667                   0          0.00694444        40
       19            0.666667            0.666667                   0          0.00115741        52
       20                   0                   0            0.916667          0.00115741       144
       21            0.916667           0.0833333            0.916667          0.00694444       145
       22            0.833333            0.166667            0.916667          0.00694444       146
       23                0.75                0.25            0.916667          0.00694444       147
       24            0.666667            0.333333            0.916667          0.00694444       148
       25            0.583333            0.416667            0.916667          0.00694444       149
       26                 0.5                 0.5            0.916667          0.00347222       150
       27            0.916667            0.916667            0.916667          0.00694444       157
       28            0.916667            0.833333            0.916667           0.0138889       158
       29            0.916667                0.75            0.916667           0.0138889       159
       30            0.916667            0.666667            0.916667           0.0138889       160
       31            0.916667            0.583333            0.916667           0.0138889       161
       32            0.833333            0.833333            0.916667          0.00694444       170
       33            0.833333                0.75            0.916667           0.0138889       171
       34            0.833333            0.666667            0.916667           0.0138889       172
       35            0.833333            0.583333            0.916667          0.00694444       173
       36                0.75                0.75            0.916667          0.00694444       183
       37                0.75            0.666667            0.916667           0.0138889       184
       38            0.666667            0.666667            0.916667          0.00231481       196
       39                   0                   0            0.833333          0.00115741       288
       40            0.916667           0.0833333            0.833333          0.00694444       289
       41            0.833333            0.166667            0.833333          0.00694444       290
       42                0.75                0.25            0.833333          0.00694444       291
       43            0.666667            0.333333            0.833333          0.00694444       292
       44            0.583333            0.416667            0.833333          0.00694444       293
       45                 0.5                 0.5            0.833333          0.00347222       294
       46            0.916667            0.916667            0.833333          0.00694444       301
       47            0.916667            0.833333            0.833333           0.0138889       302
       48            0.916667                0.75            0.833333           0.0138889       303
       49            0.916667            0.666667            0.833333           0.0138889       304
       50            0.916667            0.583333            0.833333           0.0138889       305
       51            0.833333            0.833333            0.833333          0.00694444       314
       52            0.833333                0.75            0.833333           0.0138889       315
       53            0.833333            0.666667            0.833333           0.0138889       316
       54            0.833333            0.583333            0.833333          0.00694444       317
       55                0.75                0.75            0.833333          0.00694444       327
       56                0.75            0.666667            0.833333           0.0138889       328
       57            0.666667            0.666667            0.833333          0.00231481       340
       58                   0                   0                0.75          0.00115741       432
       59            0.916667           0.0833333                0.75          0.00694444       433
       60            0.833333            0.166667                0.75          0.00694444       434
       61                0.75                0.25                0.75          0.00694444       435
       62            0.666667            0.333333                0.75          0.00694444       436
       63            0.583333            0.416667                0.75          0.00694444       437
       64                 0.5                 0.5                0.75          0.00347222       438
       65            0.916667            0.916667                0.75          0.00694444       445
       66            0.916667            0.833333                0.75           0.0138889       446
       67            0.916667                0.75                0.75           0.0138889       447
       68            0.916667            0.666667                0.75           0.0138889       448
       69            0.916667            0.583333                0.75           0.0138889       449
       70            0.833333            0.833333                0.75          0.00694444       458
       71            0.833333                0.75                0.75           0.0138889       459
       72            0.833333            0.666667                0.75           0.0138889       460
       73            0.833333            0.583333                0.75          0.00694444       461
       74                0.75                0.75                0.75          0.00694444       471
       75                0.75            0.666667                0.75           0.0138889       472
       76            0.666667            0.666667                0.75          0.00231481       484
       77                   0                   0            0.666667          0.00115741       576
       78            0.916667           0.0833333            0.666667          0.00694444       577
       79            0.833333            0.166667            0.666667          0.00694444       578
       80                0.75                0.25            0.666667          0.00694444       579
       81            0.666667            0.333333            0.666667          0.00694444       580
       82            0.583333            0.416667            0.666667          0.00694444       581
       83                 0.5                 0.5            0.666667          0.00347222       582
       84            0.916667            0.916667            0.666667          0.00694444       589
       85            0.916667            0.833333            0.666667           0.0138889       590
       86            0.916667                0.75            0.666667           0.0138889       591
       87            0.916667            0.666667            0.666667           0.0138889       592
       88            0.916667            0.583333            0.666667           0.0138889       593
       89            0.833333            0.833333            0.666667          0.00694444       602
       90            0.833333                0.75            0.666667           0.0138889       603
       91            0.833333            0.666667            0.666667           0.0138889       604
       92            0.833333            0.583333            0.666667          0.00694444       605
       93                0.75                0.75            0.666667          0.00694444       615
       94                0.75            0.666667            0.666667           0.0138889       616
       95            0.666667            0.666667            0.666667          0.00231481       628
       96                   0                   0            0.583333          0.00115741       720
       97            0.916667           0.0833333            0.583333          0.00694444       721
       98            0.833333            0.166667            0.583333          0.00694444       722
       99                0.75                0.25            0.583333          0.00694444       723
      100            0.666667            0.333333            0.583333          0.00694444       724
      101            0.583333            0.416667            0.583333          0.00694444       725
      102                 0.5                 0.5            0.583333          0.00347222       726
      103            0.916667            0.916667            0.583333          0.00694444       733
      104            0.916667            0.833333            0.583333           0.0138889       734
      105            0.916667                0.75            0.583333           0.0138889       735
      106            0.916667            0.666667            0.583333           0.0138889       736
      107            0.916667            0.583333            0.583333           0.0138889       737
      108            0.833333            0.833333            0.583333          0.00694444       746
      109            0.833333                0.75            0.583333           0.0138889       747
      110            0.833333            0.666667            0.583333           0.0138889       748
      111            0.833333            0.583333            0.583333          0.00694444       749
      112                0.75                0.75            0.583333          0.00694444       759
      113                0.75            0.666667            0.583333           0.0138889       760
      114            0.666667            0.666667            0.583333          0.00231481       772
      115                   0                   0                 0.5         0.000578704       864
      116            0.916667           0.0833333                 0.5          0.00347222       865
      117            0.833333            0.166667                 0.5          0.00347222       866
      118                0.75                0.25                 0.5          0.00347222       867
      119            0.666667            0.333333                 0.5          0.00347222       868
      120            0.583333            0.416667                 0.5          0.00347222       869
      121                 0.5                 0.5                 0.5          0.00173611       870
      122            0.916667            0.916667                 0.5          0.00347222       877
      123            0.916667            0.833333                 0.5          0.00694444       878
      124            0.916667                0.75                 0.5          0.00694444       879
      125            0.916667            0.666667                 0.5          0.00694444       880
      126            0.916667            0.583333                 0.5          0.00694444       881
      127            0.833333            0.833333                 0.5          0.00347222       890
      128            0.833333                0.75                 0.5          0.00694444       891
      129            0.833333            0.666667                 0.5          0.00694444       892
      130            0.833333            0.583333                 0.5          0.00347222       893
      131                0.75                0.75                 0.5          0.00347222       903
      132                0.75            0.666667                 0.5          0.00694444       904
      133            0.666667            0.666667                 0.5          0.00115741       916
                               nkstot now = 133

  KPOINTS            DIRECT_X            DIRECT_Y            DIRECT_Z              WEIGHT
        1                   0                   0                   0         0.000578704
        2            0.916667           0.0833333                   0          0.00347222
        3            0.833333            0.166667                   0          0.00347222
        4                0.75                0.25                   0          0.00347222
        5            0.666667            0.333333                   0          0.00347222
        6            0.583333            0.416667                   0          0.00347222
        7                 0.5                 0.5                   0          0.00173611
        8            0.916667            0.916667                   0          0.00347222
        9            0.916667            0.833333                   0          0.00694444
       10            0.916667                0.75                   0          0.00694444
       11            0.916667            0.666667                   0          0.00694444
       12            0.916667            0.583333                   0          0.00694444
       13            0.833333            0.833333                   0          0.00347222
       14            0.833333                0.75                   0          0.00694444
       15            0.833333            0.666667                   0          0.00694444
       16            0.833333            0.583333                   0          0.00347222
       17                0.75                0.75                   0          0.00347222
       18                0.75            0.666667                   0          0.00694444
       19            0.666667            0.666667                   0          0.00115741
       20                   0                   0            0.916667          0.00115741
       21            0.916667           0.0833333            0.916667          0.00694444
       22            0.833333            0.166667            0.916667          0.00694444
       23                0.75                0.25            0.916667          0.00694444
       24            0.666667            0.333333            0.916667          0.00694444
       25            0.583333            0.416667            0.916667          0.00694444
       26                 0.5                 0.5            0.916667          0.00347222
       27            0.916667            0.916667            0.916667          0.00694444
       28            0.916667            0.833333            0.916667           0.0138889
       29            0.916667                0.75            0.916667           0.0138889
       30            0.916667            0.666667            0.916667           0.0138889
       31            0.916667            0.583333            0.916667           0.0138889
       32            0.833333            0.833333            0.916667          0.00694444
       33            0.833333                0.75            0.916667           0.0138889
       34            0.833333            0.666667            0.916667           0.0138889
       35            0.833333            0.583333            0.916667          0.00694444
       36                0.75                0.75            0.916667          0.00694444
       37                0.75            0.666667            0.916667           0.0138889
       38            0.666667            0.666667            0.916667          0.00231481
       39                   0                   0            0.833333          0.00115741
       40            0.916667           0.0833333            0.833333          0.00694444
       41            0.833333            0.166667            0.833333          0.00694444
       42                0.75                0.25            0.833333          0.00694444
       43            0.666667            0.333333            0.833333          0.00694444
       44            0.583333            0.416667            0.833333          0.00694444
       45                 0.5                 0.5            0.833333          0.00347222
       46            0.916667            0.916667            0.833333          0.00694444
       47            0.916667            0.833333            0.833333           0.0138889
       48            0.916667                0.75            0.833333           0.0138889
       49            0.916667            0.666667            0.833333           0.0138889
       50            0.916667            0.583333            0.833333           0.0138889
       51            0.833333            0.833333            0.833333          0.00694444
       52            0.833333                0.75            0.833333           0.0138889
       53            0.833333            0.666667            0.833333           0.0138889
       54            0.833333            0.583333            0.833333          0.00694444
       55                0.75                0.75            0.833333          0.00694444
       56                0.75            0.666667            0.833333           0.0138889
       57            0.666667            0.666667            0.833333          0.00231481
       58                   0                   0                0.75          0.00115741
       59            0.916667           0.0833333                0.75          0.00694444
       60            0.833333            0.166667                0.75          0.00694444
       61                0.75                0.25                0.75          0.00694444
       62            0.666667            0.333333                0.75          0.00694444
       63            0.583333            0.416667                0.75          0.00694444
       64                 0.5                 0.5                0.75          0.00347222
       65            0.916667            0.916667                0.75          0.00694444
       66            0.916667            0.833333                0.75           0.0138889
       67            0.916667                0.75                0.75           0.0138889
       68            0.916667            0.666667                0.75           0.0138889
       69            0.916667            0.583333                0.75           0.0138889
       70            0.833333            0.833333                0.75          0.00694444
       71            0.833333                0.75                0.75           0.0138889
       72            0.833333            0.666667                0.75           0.0138889
       73            0.833333            0.583333                0.75          0.00694444
       74                0.75                0.75                0.75          0.00694444
       75                0.75            0.666667                0.75           0.0138889
       76            0.666667            0.666667                0.75          0.00231481
       77                   0                   0            0.666667          0.00115741
       78            0.916667           0.0833333            0.666667          0.00694444
       79            0.833333            0.166667            0.666667          0.00694444
       80                0.75                0.25            0.666667          0.00694444
       81            0.666667            0.333333            0.666667          0.00694444
       82            0.583333            0.416667            0.666667          0.00694444
       83                 0.5                 0.5            0.666667          0.00347222
       84            0.916667            0.916667            0.666667          0.00694444
       85            0.916667            0.833333            0.666667           0.0138889
       86            0.916667                0.75            0.666667           0.0138889
       87            0.916667            0.666667            0.666667           0.0138889
       88            0.916667            0.583333            0.666667           0.0138889
       89            0.833333            0.833333            0.666667          0.00694444
       90            0.833333                0.75            0.666667           0.0138889
       91            0.833333            0.666667            0.666667           0.0138889
       92            0.833333            0.583333            0.666667          0.00694444
       93                0.75                0.75            0.666667          0.00694444
       94                0.75            0.666667            0.666667           0.0138889
       95            0.666667            0.666667            0.666667          0.00231481
       96                   0                   0            0.583333          0.00115741
       97            0.916667           0.0833333            0.583333          0.00694444
       98            0.833333            0.166667            0.583333          0.00694444
       99                0.75                0.25            0.583333          0.00694444
      100            0.666667            0.333333            0.583333          0.00694444
      101            0.583333            0.416667            0.583333          0.00694444
      102                 0.5                 0.5            0.583333          0.00347222
      103            0.916667            0.916667            0.583333          0.00694444
      104            0.916667            0.833333            0.583333           0.0138889
      105            0.916667                0.75            0.583333           0.0138889
      106            0.916667            0.666667            0.583333           0.0138889
      107            0.916667            0.583333            0.583333           0.0138889
      108            0.833333            0.833333            0.583333          0.00694444
      109            0.833333                0.75            0.583333           0.0138889
      110            0.833333            0.666667            0.583333           0.0138889
      111            0.833333            0.583333            0.583333          0.00694444
      112                0.75                0.75            0.583333          0.00694444
      113                0.75            0.666667            0.583333           0.0138889
      114            0.666667            0.666667            0.583333          0.00231481
      115                   0                   0                 0.5         0.000578704
      116            0.916667           0.0833333                 0.5          0.00347222
      117            0.833333            0.166667                 0.5          0.00347222
      118                0.75                0.25                 0.5          0.00347222
      119            0.666667            0.333333                 0.5          0.00347222
      120            0.583333            0.416667                 0.5          0.00347222
      121                 0.5                 0.5                 0.5          0.00173611
      122            0.916667            0.916667                 0.5          0.00347222
      123            0.916667            0.833333                 0.5          0.00694444
      124            0.916667                0.75                 0.5          0.00694444
      125            0.916667            0.666667                 0.5          0.00694444
      126            0.916667            0.583333                 0.5          0.00694444
      127            0.833333            0.833333                 0.5          0.00347222
      128            0.833333                0.75                 0.5          0.00694444
      129            0.833333            0.666667                 0.5          0.00694444
      130            0.833333            0.583333                 0.5          0.00347222
      131                0.75                0.75                 0.5          0.00347222
      132                0.75            0.666667                 0.5          0.00694444
      133            0.666667            0.666667                 0.5          0.00115741

           k-point number in this process = 133
       minimum distributed K point number = 133

  KPOINTS         CARTESIAN_X         CARTESIAN_Y         CARTESIAN_Z              WEIGHT
        1                   0                   0                   0          0.00115741
        2            0.916667            0.625463                   0          0.00694444
        3            0.833333            0.673575                   0          0.00694444
        4                0.75            0.721688                   0          0.00694444
        5            0.666667              0.7698                   0          0.00694444
        6            0.583333            0.817913                   0          0.00694444
        7                 0.5            0.866025                   0          0.00347222
        8            0.916667             1.58771                   0          0.00694444
        9            0.916667             1.49149                   0           0.0138889
       10            0.916667             1.39526                   0           0.0138889
       11            0.916667             1.29904                   0           0.0138889
       12            0.916667             1.20281                   0           0.0138889
       13            0.833333             1.44338                   0          0.00694444
       14            0.833333             1.34715                   0           0.0138889
       15            0.833333             1.25093                   0           0.0138889
       16            0.833333              1.1547                   0          0.00694444
       17                0.75             1.29904                   0          0.00694444
       18                0.75             1.20281                   0           0.0138889
       19            0.666667              1.1547                   0          0.00231481
       20                   0                   0            0.560508          0.00231481
       21            0.916667            0.625463            0.560508           0.0138889
       22            0.833333            0.673575            0.560508           0.0138889
       23                0.75            0.721688            0.560508           0.0138889
       24            0.666667              0.7698            0.560508           0.0138889
       25            0.583333            0.817913            0.560508           0.0138889
       26                 0.5            0.866025            0.560508          0.00694444
       27            0.916667             1.58771            0.560508           0.0138889
       28            0.916667             1.49149            0.560508           0.0277778
       29            0.916667             1.39526            0.560508           0.0277778
       30            0.916667             1.29904            0.560508           0.0277778
       31            0.916667             1.20281            0.560508           0.0277778
       32            0.833333             1.44338            0.560508           0.0138889
       33            0.833333             1.34715            0.560508           0.0277778
       34            0.833333             1.25093            0.560508           0.0277778
       35            0.833333              1.1547            0.560508           0.0138889
       36                0.75             1.29904            0.560508           0.0138889
       37                0.75             1.20281            0.560508           0.0277778
       38            0.666667              1.1547            0.560508          0.00462963
       39                   0                   0            0.509553          0.00231481
       40            0.916667            0.625463            0.509553           0.0138889
       41            0.833333            0.673575            0.509553           0.0138889
       42                0.75            0.721688            0.509553           0.0138889
       43            0.666667              0.7698            0.509553           0.0138889
       44            0.583333            0.817913            0.509553           0.0138889
       45                 0.5            0.866025            0.509553          0.00694444
       46            0.916667             1.58771            0.509553           0.0138889
       47            0.916667             1.49149            0.509553           0.0277778
       48            0.916667             1.39526            0.509553           0.0277778
       49            0.916667             1.29904            0.509553           0.0277778
       50            0.916667             1.20281            0.509553           0.0277778
       51            0.833333             1.44338            0.509553           0.0138889
       52            0.833333             1.34715            0.509553           0.0277778
       53            0.833333             1.25093            0.509553           0.0277778
       54            0.833333              1.1547            0.509553           0.0138889
       55                0.75             1.29904            0.509553           0.0138889
       56                0.75             1.20281            0.509553           0.0277778
       57            0.666667              1.1547            0.509553          0.00462963
       58                   0                   0            0.458597          0.00231481
       59            0.916667            0.625463            0.458597           0.0138889
       60            0.833333            0.673575            0.458597           0.0138889
       61                0.75            0.721688            0.458597           0.0138889
       62            0.666667              0.7698            0.458597           0.0138889
       63            0.583333            0.817913            0.458597           0.0138889
       64                 0.5            0.866025            0.458597          0.00694444
       65            0.916667             1.58771            0.458597           0.0138889
       66            0.916667             1.49149            0.458597           0.0277778
       67            0.916667             1.39526            0.458597           0.0277778
       68            0.916667             1.29904            0.458597           0.0277778
       69            0.916667             1.20281            0.458597           0.0277778
       70            0.833333             1.44338            0.458597           0.0138889
       71            0.833333             1.34715            0.458597           0.0277778
       72            0.833333             1.25093            0.458597           0.0277778
       73            0.833333              1.1547            0.458597           0.0138889
       74                0.75             1.29904            0.458597           0.0138889
       75                0.75             1.20281            0.458597           0.0277778
       76            0.666667              1.1547            0.458597          0.00462963
       77                   0                   0            0.407642          0.00231481
       78            0.916667            0.625463            0.407642           0.0138889
       79            0.833333            0.673575            0.407642           0.0138889
       80                0.75            0.721688            0.407642           0.0138889
       81            0.666667              0.7698            0.407642           0.0138889
       82            0.583333            0.817913            0.407642           0.0138889
       83                 0.5            0.866025            0.407642          0.00694444
       84            0.916667             1.58771            0.407642           0.0138889
       85            0.916667             1.49149            0.407642           0.0277778
       86            0.916667             1.39526            0.407642           0.0277778
       87            0.916667             1.29904            0.407642           0.0277778
       88            0.916667             1.20281            0.407642           0.0277778
       89            0.833333             1.44338            0.407642           0.0138889
       90            0.833333             1.34715            0.407642           0.0277778
       91            0.833333             1.25093            0.407642           0.0277778
       92            0.833333              1.1547            0.407642           0.0138889
       93                0.75             1.29904            0.407642           0.0138889
       94                0.75             1.20281            0.407642           0.0277778
       95            0.666667              1.1547            0.407642          0.00462963
       96                   0                   0            0.356687          0.00231481
       97            0.916667            0.625463            0.356687           0.0138889
       98            0.833333            0.673575            0.356687           0.0138889
       99                0.75            0.721688            0.356687           0.0138889
      100            0.666667              0.7698            0.356687           0.0138889
      101            0.583333            0.817913            0.356687           0.0138889
      102                 0.5            0.866025            0.356687          0.00694444
      103            0.916667             1.58771            0.356687           0.0138889
      104            0.916667             1.49149            0.356687           0.0277778
      105            0.916667             1.39526            0.356687           0.0277778
      106            0.916667             1.29904            0.356687           0.0277778
      107            0.916667             1.20281            0.356687           0.0277778
      108            0.833333             1.44338            0.356687           0.0138889
      109            0.833333             1.34715            0.356687           0.0277778
      110            0.833333             1.25093            0.356687           0.0277778
      111            0.833333              1.1547            0.356687           0.0138889
      112                0.75             1.29904            0.356687           0.0138889
      113                0.75             1.20281            0.356687           0.0277778
      114            0.666667              1.1547            0.356687          0.00462963
      115                   0                   0            0.305732          0.00115741
      116            0.916667            0.625463            0.305732          0.00694444
      117            0.833333            0.673575            0.305732          0.00694444
      118                0.75            0.721688            0.305732          0.00694444
      119            0.666667              0.7698            0.305732          0.00694444
      120            0.583333            0.817913            0.305732          0.00694444
      121                 0.5            0.866025            0.305732          0.00347222
      122            0.916667             1.58771            0.305732          0.00694444
      123            0.916667             1.49149            0.305732           0.0138889
      124            0.916667             1.39526            0.305732           0.0138889
      125            0.916667             1.29904            0.305732           0.0138889
      126            0.916667             1.20281            0.305732           0.0138889
      127            0.833333             1.44338            0.305732          0.00694444
      128            0.833333             1.34715            0.305732           0.0138889
      129            0.833333             1.25093            0.305732           0.0138889
      130            0.833333              1.1547            0.305732          0.00694444
      131                0.75             1.29904            0.305732          0.00694444
      132                0.75             1.20281            0.305732           0.0138889
      133            0.666667              1.1547            0.305732          0.00231481

  KPOINTS            DIRECT_X            DIRECT_Y            DIRECT_Z              WEIGHT
        1                   0                   0                   0          0.00115741
        2            0.916667           0.0833333                   0          0.00694444
        3            0.833333            0.166667                   0          0.00694444
        4                0.75                0.25                   0          0.00694444
        5            0.666667            0.333333                   0          0.00694444
        6            0.583333            0.416667                   0          0.00694444
        7                 0.5                 0.5                   0          0.00347222
        8            0.916667            0.916667                   0          0.00694444
        9            0.916667            0.833333                   0           0.0138889
       10            0.916667                0.75                   0           0.0138889
       11            0.916667            0.666667                   0           0.0138889
       12            0.916667            0.583333                   0           0.0138889
       13            0.833333            0.833333                   0          0.00694444
       14            0.833333                0.75                   0           0.0138889
       15            0.833333            0.666667                   0           0.0138889
       16            0.833333            0.583333                   0          0.00694444
       17                0.75                0.75                   0          0.00694444
       18                0.75            0.666667                   0           0.0138889
       19            0.666667            0.666667                   0          0.00231481
       20                   0                   0            0.916667          0.00231481
       21            0.916667           0.0833333            0.916667           0.0138889
       22            0.833333            0.166667            0.916667           0.0138889
       23                0.75                0.25            0.916667           0.0138889
       24            0.666667            0.333333            0.916667           0.0138889
       25            0.583333            0.416667            0.916667           0.0138889
       26                 0.5                 0.5            0.916667          0.00694444
       27            0.916667            0.916667            0.916667           0.0138889
       28            0.916667            0.833333            0.916667           0.0277778
       29            0.916667                0.75            0.916667           0.0277778
       30            0.916667            0.666667            0.916667           0.0277778
       31            0.916667            0.583333            0.916667           0.0277778
       32            0.833333            0.833333            0.916667           0.0138889
       33            0.833333                0.75            0.916667           0.0277778
       34            0.833333            0.666667            0.916667           0.0277778
       35            0.833333            0.583333            0.916667           0.0138889
       36                0.75                0.75            0.916667           0.0138889
       37                0.75            0.666667            0.916667           0.0277778
       38            0.666667            0.666667            0.916667          0.00462963
       39                   0                   0            0.833333          0.00231481
       40            0.916667           0.0833333            0.833333           0.0138889
       41            0.833333            0.166667            0.833333           0.0138889
       42                0.75                0.25            0.833333           0.0138889
       43            0.666667            0.333333            0.833333           0.0138889
       44            0.583333            0.416667            0.833333           0.0138889
       45                 0.5                 0.5            0.833333          0.00694444
       46            0.916667            0.916667            0.833333           0.0138889
       47            0.916667            0.833333            0.833333           0.0277778
       48            0.916667                0.75            0.833333           0.0277778
       49            0.916667            0.666667            0.833333           0.0277778
       50            0.916667            0.583333            0.833333           0.0277778
       51            0.833333            0.833333            0.833333           0.0138889
       52            0.833333                0.75            0.833333           0.0277778
       53            0.833333            0.666667            0.833333           0.0277778
       54            0.833333            0.583333            0.833333           0.0138889
       55                0.75                0.75            0.833333           0.0138889
       56                0.75            0.666667            0.833333           0.0277778
       57            0.666667            0.666667            0.833333          0.00462963
       58                   0                   0                0.75          0.00231481
       59            0.916667           0.0833333                0.75           0.0138889
       60            0.833333            0.166667                0.75           0.0138889
       61                0.75                0.25                0.75           0.0138889
       62            0.666667            0.333333                0.75           0.0138889
       63            0.583333            0.416667                0.75           0.0138889
       64                 0.5                 0.5                0.75          0.00694444
       65            0.916667            0.916667                0.75           0.0138889
       66            0.916667            0.833333                0.75           0.0277778
       67            0.916667                0.75                0.75           0.0277778
       68            0.916667            0.666667                0.75           0.0277778
       69            0.916667            0.583333                0.75           0.0277778
       70            0.833333            0.833333                0.75           0.0138889
       71            0.833333                0.75                0.75           0.0277778
       72            0.833333            0.666667                0.75           0.0277778
       73            0.833333            0.583333                0.75           0.0138889
       74                0.75                0.75                0.75           0.0138889
       75                0.75            0.666667                0.75           0.0277778
       76            0.666667            0.666667                0.75          0.00462963
       77                   0                   0            0.666667          0.00231481
       78            0.916667           0.0833333            0.666667           0.0138889
       79            0.833333            0.166667            0.666667           0.0138889
       80                0.75                0.25            0.666667           0.0138889
       81            0.666667            0.333333            0.666667           0.0138889
       82            0.583333            0.416667            0.666667           0.0138889
       83                 0.5                 0.5            0.666667          0.00694444
       84            0.916667            0.916667            0.666667           0.0138889
       85            0.916667            0.833333            0.666667           0.0277778
       86            0.916667                0.75            0.666667           0.0277778
       87            0.916667            0.666667            0.666667           0.0277778
       88            0.916667            0.583333            0.666667           0.0277778
       89            0.833333            0.833333            0.666667           0.0138889
       90            0.833333                0.75            0.666667           0.0277778
       91            0.833333            0.666667            0.666667           0.0277778
       92            0.833333            0.583333            0.666667           0.0138889
       93                0.75                0.75            0.666667           0.0138889
       94                0.75            0.666667            0.666667           0.0277778
       95            0.666667            0.666667            0.666667          0.00462963
       96                   0                   0            0.583333          0.00231481
       97            0.916667           0.0833333            0.583333           0.0138889
       98            0.833333            0.166667            0.583333           0.0138889
       99                0.75                0.25            0.583333           0.0138889
      100            0.666667            0.333333            0.583333           0.0138889
      101            0.583333            0.416667            0.583333           0.0138889
      102                 0.5                 0.5            0.583333          0.00694444
      103            0.916667            0.916667            0.583333           0.0138889
      104            0.916667            0.833333            0.583333           0.0277778
      105            0.916667                0.75            0.583333           0.0277778
      106            0.916667            0.666667            0.583333           0.0277778
      107            0.916667            0.583333            0.583333           0.0277778
      108            0.833333            0.833333            0.583333           0.0138889
      109            0.833333                0.75            0.583333           0.0277778
      110            0.833333            0.666667            0.583333           0.0277778
      111            0.833333            0.583333            0.583333           0.0138889
      112                0.75                0.75            0.583333           0.0138889
      113                0.75            0.666667            0.583333           0.0277778
      114            0.666667            0.666667            0.583333          0.00462963
      115                   0                   0                 0.5          0.00115741
      116            0.916667           0.0833333                 0.5          0.00694444
      117            0.833333            0.166667                 0.5          0.00694444
      118                0.75                0.25                 0.5          0.00694444
      119            0.666667            0.333333                 0.5          0.00694444
      120            0.583333            0.416667                 0.5          0.00694444
      121                 0.5                 0.5                 0.5          0.00347222
      122            0.916667            0.916667                 0.5          0.00694444
      123            0.916667            0.833333                 0.5           0.0138889
      124            0.916667                0.75                 0.5           0.0138889
      125            0.916667            0.666667                 0.5           0.0138889
      126            0.916667            0.583333                 0.5           0.0138889
      127            0.833333            0.833333                 0.5          0.00694444
      128            0.833333                0.75                 0.5           0.0138889
      129            0.833333            0.666667                 0.5           0.0138889
      130            0.833333            0.583333                 0.5          0.00694444
      131                0.75                0.75                 0.5          0.00694444
      132                0.75            0.666667                 0.5           0.0138889
      133            0.666667            0.666667                 0.5          0.00231481
 DONE : INIT K-POINTS Time : 0.105063 (SEC)





 >>>>>>>>>>>>>>>>>>>>>>>>>>>>>>>>>>>>>>>>>>>>>>>>>>>>>>>>>>>>>>>>>>>>>>
 |                                                                    |
 | Setup plane waves of wave functions:                               |
 | Use the energy cutoff and the lattice vectors to generate the      |
 | dimensions of FFT grid. The number of FFT grid on each processor   |
 | is 'nrxx'. The number of plane wave basis in reciprocal space is   |
 | different for charege/potential and wave functions. We also set    |
 | the 'sticks' for the parallel of FFT. The number of plane wave of  |
 | each k-point is 'npwk[ik]' in each processor                       |
 <<<<<<<<<<<<<<<<<<<<<<<<<<<<<<<<<<<<<<<<<<<<<<<<<<<<<<<<<<<<<<<<<<<<<<





 SETUP PLANE WAVES FOR WAVE FUNCTIONS
     energy cutoff for wavefunc (unit:Ry) = 60
            [fft grid for wave functions] = 30, 30, 48
                    number of plane waves = 4573
                         number of sticks = 235

 PARALLEL PW FOR WAVE FUNCTIONS
     PROC   COLUMNS(POT)             PW
        1            235           4573
 --------------- sum -------------------
        1            235           4573
 DONE : INIT PLANEWAVE Time : 0.13916 (SEC)

 DONE : INIT CHARGE Time : 0.173227 (SEC)

                                     npwx = 2298

 SETUP NONLOCAL PSEUDOPOTENTIALS IN PLANE WAVE BASIS
 Mg non-local projectors:
 projector 1 L=0
 projector 2 L=1
      TOTAL NUMBER OF NONLOCAL PROJECTORS = 8
 DONE : LOCAL POTENTIAL Time : 0.259685 (SEC)


 Init Non-Local PseudoPotential table : 
 Init Non-Local-Pseudopotential done.
 DONE : NON-LOCAL POTENTIAL Time : 0.315062 (SEC)

                                 init_chg = atomic
 DONE : INIT POTENTIAL Time : 0.392052 (SEC)


 Make real space PAO into reciprocal space.
       max mesh points in Pseudopotential = 149
     dq(describe PAO in reciprocal space) = 0.01
                                    max q = 934

 number of pseudo atomic orbitals for Mg is 2
 the unit of pseudo atomic orbital is 1, renormalize to 1
 the unit of pseudo atomic orbital is 0.999628, renormalize to 1
 DONE : INIT BASIS Time : 0.39682 (SEC)


 -------------------------------------------
 SELF-CONSISTENT
 -------------------------------------------

 PW ALGORITHM --------------- ION=   1  ELEC=   1--------------------------------
 Notice: Threshold on eigenvalues was too large.
 hsover_error=0.04 > DRHO=0.00647947
 Origin diag_ethr = 0.01
 New    diag_ethr = 0.000161987

 Density error is 0.00775463509848
                          Error Threshold = 0.000161986724406

       Energy                       Rydberg                            eV
   E_KohnSham                -4.29215285028                -58.3977354508
     E_Harris                -4.28945904675                -58.3610843735
      E_Fermi               +0.285541678738                +3.88499384733

 PW ALGORITHM --------------- ION=   1  ELEC=   2--------------------------------

 Density error is 0.000631769382916
                          Error Threshold = 0.000193865877462

       Energy                       Rydberg                            eV
   E_KohnSham                -4.29247317308                 -58.402093666
     E_Harris                -4.29223267724                -58.3988215523
      E_Fermi               +0.283246218534                +3.85376250901

 PW ALGORITHM --------------- ION=   1  ELEC=   3--------------------------------

 Density error is 3.12757673289e-07
                          Error Threshold = 1.57942345729e-05

       Energy                       Rydberg                            eV
   E_KohnSham                -4.29248238561                -58.4022190089
     E_Harris                -4.29248239202                -58.4022190962
      E_Fermi               +0.282780366889                +3.84742427223

 PW ALGORITHM --------------- ION=   1  ELEC=   4--------------------------------

 Density error is 7.78694851091e-09
                          Error Threshold = 7.81894183222e-09

       Energy                       Rydberg                            eV
   E_KohnSham                -4.29248433452                -58.4022455252
     E_Harris                -4.29248433647                -58.4022455518
      E_Fermi               +0.282790520843                +3.84756242385

 PW ALGORITHM --------------- ION=   1  ELEC=   5--------------------------------

 Density error is 3.89320228048e-10
                          Error Threshold = 1.94673712773e-10

       Energy                       Rydberg                            eV
   E_KohnSham                -4.29248433527                -58.4022455355
     E_Harris                -4.29248433524                -58.4022455351
       E_band               +0.297914981899                 +4.0533412734
   E_one_elec                +2.67495210002                +36.3945904374
    E_Hartree              +0.0120389835537               +0.163798774459
         E_xc                 -2.5803650203                 -35.107667196
      E_Ewald                -4.39870174444                -59.8474075269
      E_demet            -0.000408654102974             -0.00556002431153
      E_descf                            +0                            +0
     E_efield                            +0                            +0
        E_exx                            +0                            +0
      E_Fermi               +0.282788737609                +3.84753816172

 charge density convergence is achieved
 final etot is -58.4022455355 eV

 STATE ENERGY(eV) AND OCCUPATIONS    NSPIN == 1
 1/133 kpoint (Cartesian) = 0 0 0 (2297 pws)
       1       -3.36722     0.00115741
       2        2.02457     0.00115741
       3        2.59699     0.00115741
       4        15.7067        0.00000

 2/133 kpoint (Cartesian) = 0.916667 0.625463 0.00000 (2283 pws)
       1       -3.22423     0.00694444
       2        2.15942     0.00694444
       3        2.73409     0.00694444
       4        13.2013        0.00000

 3/133 kpoint (Cartesian) = 0.833333 0.673575 0.00000 (2265 pws)
       1       -2.79623     0.00694444
       2        2.56407     0.00694444
       3        3.14028     0.00694444
       4        10.4882        0.00000

 4/133 kpoint (Cartesian) = 0.750000 0.721688 0.00000 (2259 pws)
       1       -2.08619     0.00694444
       2        3.23877     0.00694444
       3        3.79082     0.00546663
       4        7.99761        0.00000

 5/133 kpoint (Cartesian) = 0.666667 0.769800 0.00000 (2274 pws)
       1       -1.09914     0.00694444
       2        4.18344    8.26488e-09
       3        4.47425        0.00000
       4        5.96871        0.00000

 6/133 kpoint (Cartesian) = 0.583333 0.817913 0.00000 (2268 pws)
       1       0.157029     0.00694444
       2        3.38346     0.00694444
       3        5.39476        0.00000
       4        6.19981        0.00000

 7/133 kpoint (Cartesian) = 0.500000 0.866025 0.00000 (2296 pws)
       1        1.62503     0.00347222
       2        1.71322     0.00347222
       3        7.28421        0.00000
       4        7.86949        0.00000

 8/133 kpoint (Cartesian) = 0.916667 1.58771 0.00000 (2261 pws)
       1       -2.93873     0.00694444
       2        2.42917     0.00694444
       3        3.00590     0.00694444
       4        12.0591        0.00000

 9/133 kpoint (Cartesian) = 0.916667 1.49149 0.00000 (2262 pws)
       1       -2.36971      0.0138889
       2        2.96886      0.0138889
       3        3.53722      0.0138888
       4        9.28992        0.00000

 10/133 kpoint (Cartesian) = 0.916667 1.39526 0.00000 (2266 pws)
       1       -1.52113      0.0138889
       2        3.77866      0.0115744
       3        4.26849    2.33570e-11
       4        6.96925        0.00000

 11/133 kpoint (Cartesian) = 0.916667 1.29904 0.00000 (2272 pws)
       1      -0.399269      0.0138889
       2        4.29326    2.66154e-12
       3        4.85761        0.00000
       4        5.83569        0.00000

 12/133 kpoint (Cartesian) = 0.916667 1.20281 0.00000 (2274 pws)
       1       0.985243      0.0138889
       2        2.61232      0.0138889
       3        6.85586        0.00000
       4        8.20819        0.00000

 13/133 kpoint (Cartesian) = 0.833333 1.44338 0.00000 (2277 pws)
       1       -1.66213     0.00694444
       2        3.64371     0.00692987
       3        4.16820    2.31461e-08
       4        8.60614        0.00000

 14/133 kpoint (Cartesian) = 0.833333 1.34715 0.00000 (2279 pws)
       1      -0.678565      0.0138889
       2        4.58835        0.00000
       3        4.83453        0.00000
       4        6.26834        0.00000

 15/133 kpoint (Cartesian) = 0.833333 1.25093 0.00000 (2275 pws)
       1       0.573004      0.0138889
       2        3.78670      0.0111614
       3        5.79895        0.00000
       4        6.25023        0.00000

 16/133 kpoint (Cartesian) = 0.833333 1.15470 0.00000 (2286 pws)
       1        2.03479     0.00694444
       2        2.12381     0.00694444
       3        6.62268        0.00000
       4        7.64770        0.00000

 17/133 kpoint (Cartesian) = 0.750000 1.29904 0.00000 (2279 pws)
       1       0.435031     0.00694444
       2        4.96048        0.00000
       3        5.30672        0.00000
       4        6.97736        0.00000

 18/133 kpoint (Cartesian) = 0.750000 1.20281 0.00000 (2278 pws)
       1        1.80872      0.0138889
       2        3.42220      0.0138889
       3        4.97811        0.00000
       4        7.79809        0.00000

 19/133 kpoint (Cartesian) = 0.666667 1.15470 0.00000 (2277 pws)
       1        3.23174     0.00231481
       2        3.32578     0.00231481
       3        3.32578     0.00231481
       4        10.1834        0.00000

 20/133 kpoint (Cartesian) = 0.00000 0.00000 0.560508 (2291 pws)
       1       -3.32709     0.00231481
       2        1.37564     0.00231481
       3        3.31802     0.00231481
       4        15.7398        0.00000

 21/133 kpoint (Cartesian) = 0.916667 0.625463 0.560508 (2277 pws)
       1       -3.18415      0.0138889
       2        1.51250      0.0138889
       3        3.45287      0.0138889
       4        13.2318        0.00000

 22/133 kpoint (Cartesian) = 0.833333 0.673575 0.560508 (2263 pws)
       1       -2.75629      0.0138889
       2        1.92183      0.0138889
       3        3.85338     0.00649066
       4        10.5237        0.00000

 23/133 kpoint (Cartesian) = 0.750000 0.721688 0.560508 (2265 pws)
       1       -2.04648      0.0138889
       2        2.59841      0.0138889
       3        4.49722        0.00000
       4        8.03855        0.00000

 24/133 kpoint (Cartesian) = 0.666667 0.769800 0.560508 (2269 pws)
       1       -1.05978      0.0138889
       2        3.51300      0.0138889
       3        5.07667        0.00000
       4        6.14177        0.00000

 25/133 kpoint (Cartesian) = 0.583333 0.817913 0.560508 (2267 pws)
       1       0.195807      0.0138889
       2        3.39817      0.0138889
       3        4.88989        0.00000
       4        6.77284        0.00000

 26/133 kpoint (Cartesian) = 0.500000 0.866025 0.560508 (2280 pws)
       1        1.66202     0.00694444
       2        1.75056     0.00694444
       3        6.24780        0.00000
       4        6.34269        0.00000

 27/133 kpoint (Cartesian) = 0.916667 1.58771 0.560508 (2264 pws)
       1       -2.89874      0.0138889
       2        1.78562      0.0138889
       3        3.72072      0.0133690
       4        12.0931        0.00000

 28/133 kpoint (Cartesian) = 0.916667 1.49149 0.560508 (2267 pws)
       1       -2.32991      0.0277778
       2        2.32901      0.0277778
       3        4.24621    2.98040e-10
       4        9.32670        0.00000

 29/133 kpoint (Cartesian) = 0.916667 1.39526 0.560508 (2265 pws)
       1       -1.48162      0.0277778
       2        3.13186      0.0277778
       3        4.96686        0.00000
       4        7.02270        0.00000

 30/133 kpoint (Cartesian) = 0.916667 1.29904 0.560508 (2274 pws)
       1      -0.360197      0.0277778
       2        4.00819    0.000333877
       3        4.74606        0.00000
       4        6.33076        0.00000

 31/133 kpoint (Cartesian) = 0.916667 1.20281 0.560508 (2276 pws)
       1        1.02343      0.0277778
       2        2.64607      0.0277778
       3        5.64089        0.00000
       4        7.11684        0.00000

 32/133 kpoint (Cartesian) = 0.833333 1.44338 0.560508 (2267 pws)
       1       -1.62257      0.0138889
       2        3.00111      0.0138889
       3        4.87343        0.00000
       4        8.64582        0.00000

 33/133 kpoint (Cartesian) = 0.833333 1.34715 0.560508 (2273 pws)
       1      -0.639365      0.0277778
       2        3.90626     0.00568659
       3        5.46103        0.00000
       4        6.40533        0.00000

 34/133 kpoint (Cartesian) = 0.833333 1.25093 0.560508 (2279 pws)
       1       0.611592      0.0277778
       2        3.80050      0.0207114
       3        5.25717        0.00000
       4        6.72584        0.00000

 35/133 kpoint (Cartesian) = 0.833333 1.15470 0.560508 (2279 pws)
       1        2.07168      0.0138889
       2        2.16066      0.0138889
       3        6.35095        0.00000
       4        6.73939        0.00000

 36/133 kpoint (Cartesian) = 0.750000 1.29904 0.560508 (2279 pws)
       1       0.473727      0.0138889
       2        4.69184        0.00000
       3        5.34275        0.00000
       4        5.64404        0.00000

 37/133 kpoint (Cartesian) = 0.750000 1.20281 0.560508 (2278 pws)
       1        1.84639      0.0277778
       2        3.45495      0.0277778
       3        4.99067        0.00000
       4        6.55608        0.00000

 38/133 kpoint (Cartesian) = 0.666667 1.15470 0.560508 (2271 pws)
       1        3.26978     0.00462963
       2        3.35920     0.00462963
       3        3.35920     0.00462963
       4        7.95783        0.00000

 39/133 kpoint (Cartesian) = 0.00000 0.00000 0.509553 (2280 pws)
       1       -3.20679     0.00231481
       2       0.578001     0.00231481
       3        4.33195    1.17594e-14
       4        14.8403        0.00000

 40/133 kpoint (Cartesian) = 0.916667 0.625463 0.509553 (2280 pws)
       1       -3.06398      0.0138889
       2       0.716143      0.0138889
       3        4.46478        0.00000
       4        13.3121        0.00000

 41/133 kpoint (Cartesian) = 0.833333 0.673575 0.509553 (2276 pws)
       1       -2.63654      0.0138889
       2        1.12929      0.0138889
       3        4.85823        0.00000
       4        10.6296        0.00000

 42/133 kpoint (Cartesian) = 0.750000 0.721688 0.509553 (2267 pws)
       1       -1.92744      0.0138889
       2        1.81260      0.0138889
       3        5.47843        0.00000
       4        8.16325        0.00000

 43/133 kpoint (Cartesian) = 0.666667 0.769800 0.509553 (2267 pws)
       1      -0.941799      0.0138889
       2        2.74738      0.0138889
       3        5.53955        0.00000
       4        6.75572        0.00000

 44/133 kpoint (Cartesian) = 0.583333 0.817913 0.509553 (2272 pws)
       1       0.312011      0.0138889
       2        3.38589      0.0138889
       3        4.27464    1.37664e-11
       4        7.18088        0.00000

 45/133 kpoint (Cartesian) = 0.500000 0.866025 0.509553 (2270 pws)
       1        1.77244     0.00694444
       2        1.86178     0.00694444
       3        5.55352        0.00000
       4        5.56418        0.00000

 46/133 kpoint (Cartesian) = 0.916667 1.58771 0.509553 (2280 pws)
       1       -2.77886      0.0138889
       2       0.991806      0.0138889
       3        4.72820        0.00000
       4        12.1940        0.00000

 47/133 kpoint (Cartesian) = 0.916667 1.49149 0.509553 (2270 pws)
       1       -2.21058      0.0277778
       2        1.54031      0.0277778
       3        5.24159        0.00000
       4        9.43670        0.00000

 48/133 kpoint (Cartesian) = 0.916667 1.39526 0.509553 (2270 pws)
       1       -1.36316      0.0277778
       2        2.35283      0.0277778
       3        5.87770        0.00000
       4        7.20414        0.00000

 49/133 kpoint (Cartesian) = 0.916667 1.29904 0.509553 (2273 pws)
       1      -0.243083      0.0277778
       2        3.36505      0.0277778
       3        4.80091        0.00000
       4        7.19679        0.00000

 50/133 kpoint (Cartesian) = 0.916667 1.20281 0.509553 (2274 pws)
       1        1.13777      0.0277778
       2        2.74360      0.0277778
       3        4.91305        0.00000
       4        6.45986        0.00000

 51/133 kpoint (Cartesian) = 0.833333 1.44338 0.509553 (2266 pws)
       1       -1.50396      0.0138889
       2        2.21943      0.0138889
       3        5.83928        0.00000
       4        8.76483        0.00000

 52/133 kpoint (Cartesian) = 0.833333 1.34715 0.509553 (2272 pws)
       1      -0.521857      0.0277778
       2        3.14630      0.0277778
       3        5.93832        0.00000
       4        6.90357        0.00000

 53/133 kpoint (Cartesian) = 0.833333 1.25093 0.509553 (2278 pws)
       1       0.727214      0.0277778
       2        3.78418      0.0225907
       3        4.65715        0.00000
       4        7.03950        0.00000

 54/133 kpoint (Cartesian) = 0.833333 1.15470 0.509553 (2276 pws)
       1        2.18178      0.0138889
       2        2.27039      0.0138889
       3        5.80649        0.00000
       4        5.95496        0.00000

 55/133 kpoint (Cartesian) = 0.750000 1.29904 0.509553 (2273 pws)
       1       0.589692      0.0138889
       2        4.10670    1.89170e-06
       3        5.45016        0.00000
       4        5.71228        0.00000

 56/133 kpoint (Cartesian) = 0.750000 1.20281 0.509553 (2281 pws)
       1        1.95911      0.0277778
       2        3.54923      0.0277774
       3        4.99082        0.00000
       4        5.95638        0.00000

 57/133 kpoint (Cartesian) = 0.666667 1.15470 0.509553 (2286 pws)
       1        3.38389     0.00462963
       2        3.45764     0.00462963
       3        3.45764     0.00462963
       4        7.35956        0.00000

 58/133 kpoint (Cartesian) = 0.00000 0.00000 0.458597 (2280 pws)
       1       -3.00655     0.00231481
       2      -0.159344     0.00231481
       3        5.42964        0.00000
       4        13.3867        0.00000

 59/133 kpoint (Cartesian) = 0.916667 0.625463 0.458597 (2278 pws)
       1       -2.86397      0.0138889
       2     -0.0201935      0.0138889
       3        5.56012        0.00000
       4        13.2168        0.00000

 60/133 kpoint (Cartesian) = 0.833333 0.673575 0.458597 (2288 pws)
       1       -2.43722      0.0138889
       2       0.396067      0.0138889
       3        5.94441        0.00000
       4        10.8013        0.00000

 61/133 kpoint (Cartesian) = 0.750000 0.721688 0.458597 (2270 pws)
       1       -1.72929      0.0138889
       2        1.08523      0.0138889
       3        6.51850        0.00000
       4        8.38023        0.00000

 62/133 kpoint (Cartesian) = 0.666667 0.769800 0.458597 (2275 pws)
       1      -0.745451      0.0138889
       2        2.03473      0.0138889
       3        5.83654        0.00000
       4        7.65150        0.00000

 63/133 kpoint (Cartesian) = 0.583333 0.817913 0.458597 (2276 pws)
       1       0.505226      0.0138889
       2        3.09239      0.0138889
       3        4.05516    2.45953e-05
       4        6.57478        0.00000

 64/133 kpoint (Cartesian) = 0.500000 0.866025 0.458597 (2274 pws)
       1        1.95410     0.00694444
       2        2.04388     0.00694444
       3        4.84307        0.00000
       4        4.89661        0.00000

 65/133 kpoint (Cartesian) = 0.916667 1.58771 0.458597 (2284 pws)
       1       -2.57930      0.0138889
       2       0.257524      0.0138889
       3        5.81804        0.00000
       4        12.3577        0.00000

 66/133 kpoint (Cartesian) = 0.916667 1.49149 0.458597 (2275 pws)
       1       -2.01196      0.0277778
       2       0.810403      0.0277778
       3        6.31320        0.00000
       4        9.61862        0.00000

 67/133 kpoint (Cartesian) = 0.916667 1.39526 0.458597 (2272 pws)
       1       -1.16600      0.0277778
       2        1.63144      0.0277778
       3        6.68957        0.00000
       4        7.62698        0.00000

 68/133 kpoint (Cartesian) = 0.916667 1.29904 0.458597 (2276 pws)
       1     -0.0482324      0.0277778
       2        2.68959      0.0277778
       3        4.97570        0.00000
       4        7.55715        0.00000

 69/133 kpoint (Cartesian) = 0.916667 1.20281 0.458597 (2278 pws)
       1        1.32746      0.0277778
       2        2.88515      0.0277778
       3        4.26083    8.92494e-11
       4        5.78060        0.00000

 70/133 kpoint (Cartesian) = 0.833333 1.44338 0.458597 (2275 pws)
       1       -1.30654      0.0138889
       2        1.49593      0.0138889
       3        6.85407        0.00000
       4        8.96150        0.00000

 71/133 kpoint (Cartesian) = 0.833333 1.34715 0.458597 (2268 pws)
       1      -0.326316      0.0277778
       2        2.43897      0.0277778
       3        6.23003        0.00000
       4        7.53528        0.00000

 72/133 kpoint (Cartesian) = 0.833333 1.25093 0.458597 (2274 pws)
       1       0.919426      0.0277778
       2        3.48697      0.0277778
       3        4.45059        0.00000
       4        6.79575        0.00000

 73/133 kpoint (Cartesian) = 0.833333 1.15470 0.458597 (2277 pws)
       1        2.36280      0.0138889
       2        2.44988      0.0138889
       3        5.21068        0.00000
       4        5.24746        0.00000

 74/133 kpoint (Cartesian) = 0.750000 1.29904 0.458597 (2270 pws)
       1       0.782549      0.0138889
       2        3.46645      0.0138889
       3        5.62647        0.00000
       4        5.87297        0.00000

 75/133 kpoint (Cartesian) = 0.750000 1.20281 0.458597 (2278 pws)
       1        2.14591      0.0277778
       2        3.68398      0.0274779
       3        4.81552        0.00000
       4        5.61759        0.00000

 76/133 kpoint (Cartesian) = 0.666667 1.15470 0.458597 (2277 pws)
       1        3.57409     0.00462935
       2        3.61437     0.00462718
       3        3.61437     0.00462718
       4        6.74766        0.00000

 77/133 kpoint (Cartesian) = 0.00000 0.00000 0.407642 (2298 pws)
       1       -2.72674     0.00231481
       2      -0.825069     0.00231481
       3        6.59947        0.00000
       4        11.9271        0.00000

 78/133 kpoint (Cartesian) = 0.916667 0.625463 0.407642 (2289 pws)
       1       -2.58448      0.0138889
       2      -0.685071      0.0138889
       3        6.72698        0.00000
       4        12.0047        0.00000

 79/133 kpoint (Cartesian) = 0.833333 0.673575 0.407642 (2288 pws)
       1       -2.15870      0.0138889
       2      -0.266192      0.0138889
       3        7.09836        0.00000
       4        11.0122        0.00000

 80/133 kpoint (Cartesian) = 0.750000 0.721688 0.407642 (2269 pws)
       1       -1.45244      0.0138889
       2       0.427828      0.0138889
       3        7.56148        0.00000
       4        8.72127        0.00000

 81/133 kpoint (Cartesian) = 0.666667 0.769800 0.407642 (2272 pws)
       1      -0.471186      0.0138889
       2        1.38768      0.0138889
       3        6.13774        0.00000
       4        7.88635        0.00000

 82/133 kpoint (Cartesian) = 0.583333 0.817913 0.407642 (2278 pws)
       1       0.774678      0.0138889
       2        2.55826      0.0138889
       3        4.21484    1.72226e-09
       4        5.95870        0.00000

 83/133 kpoint (Cartesian) = 0.500000 0.866025 0.407642 (2272 pws)
       1        2.20050     0.00694444
       2        2.28805     0.00694444
       3        4.22137    5.25470e-10
       4        4.29308    1.35256e-12

 84/133 kpoint (Cartesian) = 0.916667 1.58771 0.407642 (2294 pws)
       1       -2.30046      0.0138889
       2      -0.405625      0.0138889
       3        6.97752        0.00000
       4        11.9316        0.00000

 85/133 kpoint (Cartesian) = 0.916667 1.49149 0.407642 (2279 pws)
       1       -1.73443      0.0277778
       2       0.150923      0.0277778
       3        7.44305        0.00000
       4        9.86777        0.00000

 86/133 kpoint (Cartesian) = 0.916667 1.39526 0.407642 (2269 pws)
       1      -0.890563      0.0277778
       2       0.978754      0.0277778
       3        7.22359        0.00000
       4        8.40992        0.00000

 87/133 kpoint (Cartesian) = 0.916667 1.29904 0.407642 (2274 pws)
       1       0.223814      0.0277778
       2        2.05941      0.0277778
       3        5.23458        0.00000
       4        6.99827        0.00000

 88/133 kpoint (Cartesian) = 0.916667 1.20281 0.407642 (2275 pws)
       1        1.59079      0.0277778
       2        2.96795      0.0277778
       3        3.80698      0.0198764
       4        5.16079        0.00000

 89/133 kpoint (Cartesian) = 0.833333 1.44338 0.407642 (2273 pws)
       1       -1.03073      0.0138889
       2       0.841714      0.0138889
       3        7.86652        0.00000
       4        8.70091        0.00000

 90/133 kpoint (Cartesian) = 0.833333 1.34715 0.407642 (2268 pws)
       1     -0.0532153      0.0277778
       2        1.79616      0.0277778
       3        6.52043        0.00000
       4        7.85493        0.00000

 91/133 kpoint (Cartesian) = 0.833333 1.25093 0.407642 (2276 pws)
       1        1.18739      0.0277778
       2        2.95745      0.0277778
       3        4.60972        0.00000
       4        6.28084        0.00000

 92/133 kpoint (Cartesian) = 0.833333 1.15470 0.407642 (2273 pws)
       1        2.60804      0.0138889
       2        2.69009      0.0138889
       3        4.62761        0.00000
       4        4.64623        0.00000

 93/133 kpoint (Cartesian) = 0.750000 1.29904 0.407642 (2272 pws)
       1        1.05162      0.0138889
       2        2.85630      0.0138889
       3        5.86488        0.00000
       4        6.09550        0.00000

 94/133 kpoint (Cartesian) = 0.750000 1.20281 0.407642 (2277 pws)
       1        2.40470      0.0277778
       2        3.75280      0.0252324
       3        4.52308        0.00000
       4        5.51238        0.00000

 95/133 kpoint (Cartesian) = 0.666667 1.15470 0.407642 (2283 pws)
       1        3.81209     0.00319780
       2        3.81209     0.00319780
       3        3.84039     0.00249983
       4        6.20738        0.00000

 96/133 kpoint (Cartesian) = 0.00000 0.00000 0.356687 (2298 pws)
       1       -2.36790     0.00231481
       2       -1.41607     0.00231481
       3        7.83770        0.00000
       4        10.5069        0.00000

 97/133 kpoint (Cartesian) = 0.916667 0.625463 0.356687 (2289 pws)
       1       -2.22605      0.0138889
       2       -1.27535      0.0138889
       3        7.96119        0.00000
       4        10.6135        0.00000

 98/133 kpoint (Cartesian) = 0.833333 0.673575 0.356687 (2288 pws)
       1       -1.80153      0.0138889
       2      -0.854249      0.0138889
       3        8.31235        0.00000
       4        10.7761        0.00000

 99/133 kpoint (Cartesian) = 0.750000 0.721688 0.356687 (2268 pws)
       1       -1.09745      0.0138889
       2      -0.156211      0.0138889
       3        8.44306        0.00000
       4        9.22360        0.00000

 100/133 kpoint (Cartesian) = 0.666667 0.769800 0.356687 (2277 pws)
       1      -0.119656      0.0138889
       2       0.811269      0.0138889
       3        6.49117        0.00000
       4        7.38481        0.00000

 101/133 kpoint (Cartesian) = 0.583333 0.817913 0.356687 (2284 pws)
       1        1.11904      0.0138889
       2        2.02025      0.0138889
       3        4.52309        0.00000
       4        5.40527        0.00000

 102/133 kpoint (Cartesian) = 0.500000 0.866025 0.356687 (2274 pws)
       1        2.48767     0.00694444
       2        2.56039     0.00694444
       3        3.72218     0.00667266
       4        3.78918     0.00551269

 103/133 kpoint (Cartesian) = 0.916667 1.58771 0.356687 (2285 pws)
       1       -1.94287      0.0138889
       2      -0.994433      0.0138889
       3        8.20102        0.00000
       4        10.7952        0.00000

 104/133 kpoint (Cartesian) = 0.916667 1.49149 0.356687 (2282 pws)
       1       -1.37855      0.0277778
       2      -0.434807      0.0277778
       3        8.61013        0.00000
       4        10.1463        0.00000

 105/133 kpoint (Cartesian) = 0.916667 1.39526 0.356687 (2278 pws)
       1      -0.537436      0.0277778
       2       0.398449      0.0277778
       3        7.63825        0.00000
       4        8.51373        0.00000

 106/133 kpoint (Cartesian) = 0.916667 1.29904 0.356687 (2279 pws)
       1       0.572231      0.0277778
       2        1.49260      0.0277778
       3        5.57015        0.00000
       4        6.45759        0.00000

 107/133 kpoint (Cartesian) = 0.916667 1.20281 0.356687 (2272 pws)
       1        1.92395      0.0277778
       2        2.72841      0.0277778
       3        3.82047      0.0180024
       4        4.61374        0.00000

 108/133 kpoint (Cartesian) = 0.833333 1.44338 0.356687 (2273 pws)
       1      -0.677103      0.0138889
       2       0.260287      0.0138889
       3        8.77074        0.00000
       4        8.97612        0.00000

 109/133 kpoint (Cartesian) = 0.833333 1.34715 0.356687 (2271 pws)
       1       0.296752      0.0277778
       2        1.22306      0.0277778
       3        6.85705        0.00000
       4        7.63986        0.00000

 110/133 kpoint (Cartesian) = 0.833333 1.25093 0.356687 (2273 pws)
       1        1.52969      0.0277778
       2        2.42434      0.0277778
       3        4.91227        0.00000
       4        5.76546        0.00000

 111/133 kpoint (Cartesian) = 0.833333 1.15470 0.356687 (2274 pws)
       1        2.89259      0.0138889
       2        2.95758      0.0138889
       3        4.12860    5.47410e-07
       4        4.16670    5.10937e-08

 112/133 kpoint (Cartesian) = 0.750000 1.29904 0.356687 (2272 pws)
       1        1.39584      0.0138889
       2        2.30197      0.0138889
       3        6.14371        0.00000
       4        6.32547        0.00000

 113/133 kpoint (Cartesian) = 0.750000 1.20281 0.356687 (2273 pws)
       1        2.73100      0.0277778
       2        3.51186      0.0277777
       3        4.57126        0.00000
       4        5.24591        0.00000

 114/133 kpoint (Cartesian) = 0.666667 1.15470 0.356687 (2265 pws)
       1        4.00602    6.02133e-05
       2        4.00602    6.02133e-05
       3        5.80337        0.00000
       4        5.80337        0.00000

 115/133 kpoint (Cartesian) = 0.00000 0.00000 0.305732 (2292 pws)
       1       -1.93072     0.00115741
       2       -1.93072     0.00115741
       3        9.14144        0.00000
       4        9.14144        0.00000

 116/133 kpoint (Cartesian) = 0.916667 0.625463 0.305732 (2272 pws)
       1       -1.78938     0.00694444
       2       -1.78938     0.00694444
       3        9.25890        0.00000
       4        9.25890        0.00000

 117/133 kpoint (Cartesian) = 0.833333 0.673575 0.305732 (2288 pws)
       1       -1.36642     0.00694444
       2       -1.36642     0.00694444
       3        9.57102        0.00000
       4        9.57102        0.00000

 118/133 kpoint (Cartesian) = 0.750000 0.721688 0.305732 (2282 pws)
       1      -0.665056     0.00694444
       2      -0.665056     0.00694444
       3        9.02878        0.00000
       4        9.02878        0.00000

 119/133 kpoint (Cartesian) = 0.666667 0.769800 0.305732 (2282 pws)
       1       0.308240     0.00694444
       2       0.308240     0.00694444
       3        6.90744        0.00000
       4        6.90744        0.00000

 120/133 kpoint (Cartesian) = 0.583333 0.817913 0.305732 (2276 pws)
       1        1.53590     0.00694444
       2        1.53590     0.00694444
       3        4.92445        0.00000
       4        4.92445        0.00000

 121/133 kpoint (Cartesian) = 0.500000 0.866025 0.305732 (2280 pws)
       1        2.69264     0.00347222
       2        2.69264     0.00347222
       3        3.51295     0.00347222
       4        3.51295     0.00347222

 122/133 kpoint (Cartesian) = 0.916667 1.58771 0.305732 (2286 pws)
       1       -1.50723     0.00694444
       2       -1.50723     0.00694444
       3        9.48099        0.00000
       4        9.48099        0.00000

 123/133 kpoint (Cartesian) = 0.916667 1.49149 0.305732 (2278 pws)
       1      -0.945033      0.0138889
       2      -0.945033      0.0138889
       3        9.73688        0.00000
       4        9.73688        0.00000

 124/133 kpoint (Cartesian) = 0.916667 1.39526 0.305732 (2276 pws)
       1      -0.107417      0.0138889
       2      -0.107417      0.0138889
       3        8.06527        0.00000
       4        8.06527        0.00000

 125/133 kpoint (Cartesian) = 0.916667 1.29904 0.305732 (2272 pws)
       1       0.995791      0.0138889
       2       0.995791      0.0138889
       3        5.97904        0.00000
       4        5.97904        0.00000

 126/133 kpoint (Cartesian) = 0.916667 1.20281 0.305732 (2278 pws)
       1        2.31661      0.0138889
       2        2.31661      0.0138889
       3        4.15311    1.22845e-07
       4        4.15311    1.22845e-07

 127/133 kpoint (Cartesian) = 0.833333 1.44338 0.305732 (2280 pws)
       1      -0.246429     0.00694444
       2      -0.246429     0.00694444
       3        9.20840        0.00000
       4        9.20840        0.00000

 128/133 kpoint (Cartesian) = 0.833333 1.34715 0.305732 (2268 pws)
       1       0.722622      0.0138889
       2       0.722622      0.0138889
       3        7.24151        0.00000
       4        7.24151        0.00000

 129/133 kpoint (Cartesian) = 0.833333 1.25093 0.305732 (2270 pws)
       1        1.94375      0.0138889
       2        1.94375      0.0138889
       3        5.30329        0.00000
       4        5.30329        0.00000

 130/133 kpoint (Cartesian) = 0.833333 1.15470 0.305732 (2282 pws)
       1        3.09082     0.00694444
       2        3.09082     0.00694444
       3        3.91035     0.00131124
       4        3.91035     0.00131124

 131/133 kpoint (Cartesian) = 0.750000 1.29904 0.305732 (2270 pws)
       1        1.81353     0.00694444
       2        1.81353     0.00694444
       3        6.37198        0.00000
       4        6.37198        0.00000

 132/133 kpoint (Cartesian) = 0.750000 1.20281 0.305732 (2274 pws)
       1        3.11340      0.0138889
       2        3.11340      0.0138889
       3        4.87634        0.00000
       4        4.87634        0.00000

 133/133 kpoint (Cartesian) = 0.666667 1.15470 0.305732 (2268 pws)
       1        4.09691    5.32816e-07
       2        4.09691    5.32815e-07
       3        5.64185        0.00000
       4        5.64185        0.00000



 --------------------------------------------
 !FINAL_ETOT_IS -58.40224553546999 eV
 --------------------------------------------






  |CLASS_NAME---------|NAME---------------|TIME(Sec)-----|CALLS----|AVG------|PER%-------
                                      total         9.8400        19      0.52   1.0e+02%
                 Driver         driver_line         9.8301         1       9.8    1.e+02%
          ESolver_KS_PW                 Run         9.4390         1       9.4       96.%
              HSolverPW               solve         9.3793         6       1.6       95.%
            pp_cell_vnl              getvnl        0.52894       798   0.00066       5.4%
                 WF_igk              get_sk        0.13107      1862   7.0e-05       1.3%
        DiagoIterAssist      diagH_subspace         1.8264       665    0.0027       19.%
             OperatorPW                hPsi         7.4932     11200   0.00067       76.%
               Operator              VeffPW         6.9159     11200   0.00062       70.%
             PW_Basis_K          recip2real         3.4508     15528   0.00022       35.%
             PW_Basis_K    gathers_scatterp        0.73718     15528   4.7e-05       7.5%
             PW_Basis_K          real2recip         2.5699     13727   0.00019       26.%
             PW_Basis_K    gatherp_scatters        0.18301     13727   1.3e-05       1.9%
               Operator          NonlocalPW        0.48884     11200   4.4e-05       5.0%
               Nonlocal     add_nonlocal_pp        0.18182     11200   1.6e-05       1.8%
                DiagoCG           diag_once         6.3729       798    0.0080       65.%
            ElecStatePW            psiToRho        0.53959         6     0.090       5.5%
 ----------------------------------------------------------------------------------------

 CLASS_NAME---------|NAME---------------|MEMORY(MB)--------
                                         30.04
             wavefunc                 psi          18.65
         Charge_Pulay                Rrho          2.637
         Charge_Pulay               dRrho          2.307
         Charge_Pulay                drho          2.307
 ----------------------------------------------------------

 Start  Time  : Mon Sep  5 14:20:48 2022
 Finish Time  : Mon Sep  5 14:20:58 2022
 Total  Time  : 0 h 0 mins 10 secs 
