 *********************************************************
 *                                                       *
 *                  WELCOME TO ABACUS v3.0               *
 *                                                       *
 *            'Atomic-orbital Based Ab-initio            *
 *                  Computation at UStc'                 *
 *                                                       *
 *          Website: http://abacus.ustc.edu.cn/          *
 *                                                       *
 *********************************************************
 Wed Dec 28 12:34:30 2022
 MAKE THE DIR         : OUT.blpstest/
Notice: symbol 'Li_locpsp' is not an element symbol!!!! set the covalent radius to be 0.
 UNIFORM GRID DIM     : 40 * 40 * 40
 UNIFORM GRID DIM(BIG): 40 * 40 * 40
func,idXC_GGA_X_PBE 101
func,idXC_GGA_C_PBE 130
 DONE(0.265107   SEC) : SETUP UNITCELL
 DONE(0.331579   SEC) : SYMMETRY
 DONE(0.763377   SEC) : INIT K-POINTS
 ---------------------------------------------------------
 Self-consistent calculations for electrons
 ---------------------------------------------------------
 SPIN    KPOINTS         PROCESSORS  
 1       256             1           
 ---------------------------------------------------------
 Use plane wave basis
 ---------------------------------------------------------
 ELEMENT NATOM       XC          
 Li      2           
 ---------------------------------------------------------
 Initial plane wave basis and FFT box
 ---------------------------------------------------------
 DONE(0.934861   SEC) : INIT PLANEWAVE
 MEMORY FOR PSI (MB)  : 45.5469
 DONE(0.972789   SEC) : LOCAL POTENTIAL
 DONE(0.972859   SEC) : NON-LOCAL POTENTIAL
 DONE(0.972967   SEC) : INIT BASIS
 START CHARGE      : atomic
 DONE(1.10331    SEC) : INIT SCF
 ITER   ETOT(eV)       EDIFF(eV)      DRHO       TIME(s)    
 CG1    -1.385666e+01  0.000000e+00   1.861e-02  4.773e+01  
 CG2    -1.403494e+01  -1.782784e-01  1.985e-03  7.867e+00  
 CG3    -1.403705e+01  -2.106807e-03  2.297e-05  9.177e+00  
 CG4    -1.403719e+01  -1.409279e-04  1.455e-05  1.476e+01  
 CG5    -1.403720e+01  -7.085773e-06  8.499e-06  7.921e+00  
 CG6    -1.403720e+01  -1.138265e-07  4.220e-07  7.873e+00  
 CG7    -1.403719e+01  2.799967e-07   2.528e-07  9.691e+00  
 CG8    -1.403720e+01  -8.990767e-09  5.505e-09  7.896e+00  
 CG9    -1.403720e+01  2.238421e-09   3.012e-09  1.096e+01  
 CG10   -1.403720e+01  -1.682012e-10  5.214e-12  6.922e+00  

  |CLASS_NAME---------|NAME---------------|TIME(Sec)-----|CALLS----|AVG------|PER%-------
                       total               131.92         17        7.8       1e+02     %
   Driver              driver_line         131.9          1         1.3e+02   1e+02     %
   PW_Basis            setuptransform      0.23228        1         0.23      0.18      %
   PW_Basis_K          setuptransform      0.12595        1         0.13      0.095     %
   ESolver_KS_PW       Run                 130.94         1         1.3e+02   99        %
   PW_Basis            recip2real          0.10487        68        0.0015    0.079     %
   Potential           update_from_charge  0.60464        11        0.055     0.46      %
   Potential           cal_v_eff           0.60121        11        0.055     0.46      %
   PW_Basis            real2recip          0.15164        110       0.0014    0.11      %
   PotXC               cal_v_eff           0.55808        11        0.051     0.42      %
   XC_Functional       v_xc                85.526         6         14        65        %
   XC_Functional       v_xc_libxc          0.55467        11        0.05      0.42      %
   HSolverPW           solve               130.18         11        12        99        %
   DiagoIterAssist     diagH_subspace      26.647         2560      0.01      20        %
   OperatorPW          hPsi                121.74         46326     0.0026    92        %
   Operator            EkineticPW          0.32251        46326     7e-06     0.24      %
   Operator            VeffPW              121.23         46326     0.0026    92        %
   PW_Basis_K          recip2real          64.717         59819     0.0011    49        %
   PW_Basis_K          gathers_scatterp    5.4032         59819     9e-05     4.1       %
   PW_Basis_K          real2recip          52.325         56566     0.00093   40        %
   PW_Basis_K          gatherp_scatters    1.0659         56566     1.9e-05   0.81      %
   DiagoCG             diag_once           99.12          2816      0.035     75        %
   ElecStatePW         psiToRho            3.4717         11        0.32      2.6       %
 ----------------------------------------------------------------------------------------

 START  Time  : Wed Dec 28 12:34:30 2022
 FINISH Time  : Wed Dec 28 12:36:42 2022
 TOTAL  Time  : 1.3e+02
 SEE INFORMATION IN : OUT.blpstest/
