                                                                                     
                             WELCOME TO ABACUS                                       
                                                                                     
               'Atomic-orbital Based Ab-initio Computation at UStc'                  
                                                                                     
                     Website: http://abacus.ustc.edu.cn/                             
                                                                                     
    Version: Parallel, in development
    Processor Number is 1
    Start Time is Fri Sep 10 11:31:50 2021
                                                                                     
 ------------------------------------------------------------------------------------

 READING GENERAL INFORMATION
                           global_out_dir = OUT.blpstest/
                           global_in_card = INPUT
                               pseudo_dir = ./
                              orbital_dir = ./
                              pseudo_type = blps
                                    DRANK = 1
                                    DSIZE = 1
                                   DCOLOR = 1
                                    GRANK = 1
                                    GSIZE = 1




 >>>>>>>>>>>>>>>>>>>>>>>>>>>>>>>>>>>>>>>>>>>>>>>>>>>>>>>>>>>>>>>>>>>>>>
 |                                                                    |
 | Reading atom information in unitcell:                              |
 | From the input file and the structure file we know the number of   |
 | different elments in this unitcell, then we list the detail        |
 | information for each element, especially the zeta and polar atomic |
 | orbital number for each element. The total atom number is counted. |
 | We calculate the nearest atom distance for each atom and show the  |
 | Cartesian and Direct coordinates for each atom. We list the file   |
 | address for atomic orbitals. The volume and the lattice vectors    |
 | in real and reciprocal space is also shown.                        |
 |                                                                    |
 <<<<<<<<<<<<<<<<<<<<<<<<<<<<<<<<<<<<<<<<<<<<<<<<<<<<<<<<<<<<<<<<<<<<<<




 READING UNITCELL INFORMATION
                                    ntype = 1
                 atom label for species 1 = Si
                  lattice constant (Bohr) = 7.00036
              lattice constant (Angstrom) = 3.70443

 READING ATOM TYPE 1
                               atom label = Si
                      L=0, number of zeta = 1
                      L=1, number of zeta = 1
                      L=2, number of zeta = 1
             number of atom for this type = 1
                      start magnetization = FALSE

                        TOTAL ATOM NUMBER = 1

 DIRECT COORDINATES
         atom                   x                   y                   z                 mag                  vx                  vy                  vz
     taud_Si1                   0                   0                   0                   0                   0                   0                   0


                          Volume (Bohr^3) = 85.7633
                             Volume (A^3) = 12.7088

 Lattice vectors: (Cartesian coordinate: in unit of a_0)
                   +0                +0.5                +0.5
                 +0.5                  +0                +0.5
                 +0.5                +0.5                  +0
 Reciprocal vectors: (Cartesian coordinate: in unit of 2 pi/a_0)
                   -1                  +1                  +1
                   +1                  -1                  +1
                   +1                  +1                  -1




 >>>>>>>>>>>>>>>>>>>>>>>>>>>>>>>>>>>>>>>>>>>>>>>>>>>>>>>>>>>>>>>>>>>>>>
 |                                                                    |
 | Reading pseudopotentials files:                                    |
 | The pseudopotential file is in UPF format. The 'NC' indicates that |
 | the type of pseudopotential is 'norm conserving'. Functional of    |
 | exchange and correlation is decided by 4 given parameters in UPF   |
 | file.  We also read in the 'core correction' if there exists.      |
 | Also we can read the valence electrons number and the maximal      |
 | angular momentum used in this pseudopotential. We also read in the |
 | trail wave function, trail atomic density and local-pseudopotential|
 | on logrithmic grid. The non-local pseudopotential projector is also|
 | read in if there is any.                                           |
 |                                                                    |
 <<<<<<<<<<<<<<<<<<<<<<<<<<<<<<<<<<<<<<<<<<<<<<<<<<<<<<<<<<<<<<<<<<<<<<




                PAO radial cut off (Bohr) = 16

 Read in pseudopotential file is si.lda.lps
                     pseudopotential type = 
                            functional Ex = LDA
                            functional Ec = LDA
                          functional GCEx = NOGX
                          functional GCEc = NOGC
                 nonlocal core correction = 0
                        valence electrons = 4
                                     lmax = 0
                           number of zeta = 0
                     number of projectors = 0
     initial pseudo atomic orbital number = 0
                                   NLOCAL = 9

 SETUP THE ELECTRONS NUMBER
            electron number of element Si = 4
      total electron number of element Si = 4
                           occupied bands = 2
                                   NBANDS = 12
 DONE : SETUP UNITCELL Time : 0.01226 (SEC)





 >>>>>>>>>>>>>>>>>>>>>>>>>>>>>>>>>>>>>>>>>>>>>>>>>>>>>>>>>>>>>>>>>>>>>>
 |                                                                    |
 | Doing symmetry analysis:                                           |
 | We calculate the norm of 3 vectors and the angles between them,    |
 | the type of Bravais lattice is given. We can judge if the unticell |
 | is a primitive cell. Finally we give the point group operation for |
 | this unitcell. We we use the point group operations to do symmetry |
 | analysis on given k-point mesh and the charge density.             |
 |                                                                    |
 <<<<<<<<<<<<<<<<<<<<<<<<<<<<<<<<<<<<<<<<<<<<<<<<<<<<<<<<<<<<<<<<<<<<<<




 LATTICE VECTORS: (CARTESIAN COORDINATE: IN UNIT OF A0)
                   +0                +0.5                +0.5
                 +0.5                  +0                +0.5
                 +0.5                +0.5                  +0
                       right hand lattice = 1
                                   NORM_A = 0.707107
                                   NORM_B = 0.707107
                                   NORM_C = 0.707107
                           ALPHA (DEGREE) = 60
                           BETA  (DEGREE) = 60
                           GAMMA (DEGREE) = 60
                             BRAVAIS TYPE = 3
                     BRAVAIS LATTICE NAME = 03. Cubic F (face-centered)
 STANDARD LATTICE VECTORS: (CARTESIAN COORDINATE: IN UNIT OF A0)
                   +0                +0.5                +0.5
                 +0.5                  +0                +0.5
                 +0.5                +0.5                  +0
                                    IBRAV = 3
                                  BRAVAIS = FACE CENTERED CUBIC
                       LATTICE CONSTANT A = 4.12311
                                    ibrav = 3
                        ROTATION MATRICES = 48
              PURE POINT GROUP OPERATIONS = 48
                   SPACE GROUP OPERATIONS = 48
                              POINT GROUP = O_h
 DONE : SYMMETRY Time : 0.0660992 (SEC)





 >>>>>>>>>>>>>>>>>>>>>>>>>>>>>>>>>>>>>>>>>>>>>>>>>>>>>>>>>>>>>>>>>>>>>>
 |                                                                    |
 | Setup K-points                                                     |
 | We setup the k-points according to input parameters.               |
 | The reduced k-points are set according to symmetry operations.     |
 | We treat the spin as another set of k-points.                      |
 |                                                                    |
 <<<<<<<<<<<<<<<<<<<<<<<<<<<<<<<<<<<<<<<<<<<<<<<<<<<<<<<<<<<<<<<<<<<<<<





 SETUP K-POINTS
                                    nspin = 1
                   Input type of k points = Monkhorst-Pack(Gamma)
                                   nkstot = 4096
                               nkstot_ibz = 145
      IBZ             DirectX             DirectY             DirectZ              Weight    ibz2bz
        1                   0                   0                   0         0.000244141         0
        2              0.9375              0.9375              0.9375          0.00195312         1
        3               0.875               0.875               0.875          0.00195312         2
        4              0.8125              0.8125              0.8125          0.00195312         3
        5                0.75                0.75                0.75          0.00195312         4
        6              0.6875              0.6875              0.6875          0.00195312         5
        7               0.625               0.625               0.625          0.00195312         6
        8              0.5625              0.5625              0.5625          0.00195312         7
        9                 0.5                 0.5                 0.5         0.000976562         8
       10              0.9375              0.9375                   0          0.00146484        17
       11              0.9375               0.875               0.875          0.00585938        18
       12               0.875              0.8125              0.8125          0.00585938        19
       13              0.9375              0.9375              0.1875          0.00585938        20
       14              0.9375              0.9375                0.25          0.00585938        21
       15              0.9375              0.9375              0.3125          0.00585938        22
       16              0.9375              0.9375               0.375          0.00585938        23
       17              0.9375              0.9375              0.4375          0.00585938        24
       18              0.9375              0.9375                 0.5          0.00585938        25
       19              0.9375              0.9375              0.5625          0.00585938        26
       20              0.9375              0.9375               0.625          0.00585938        27
       21              0.9375              0.9375              0.6875          0.00585938        28
       22              0.9375              0.9375                0.75          0.00585938        29
       23              0.9375              0.9375              0.8125          0.00585938        30
       24              0.9375              0.9375               0.875          0.00292969        31
       25               0.875               0.875                   0          0.00146484        34
       26              0.9375              0.8125              0.8125          0.00585938        35
       27               0.875                0.75                0.75          0.00585938        36
       28              0.8125              0.6875              0.6875          0.00585938        37
       29               0.875               0.875                0.25          0.00585938        38
       30               0.875               0.875              0.3125          0.00585938        39
       31               0.875               0.875               0.375          0.00585938        40
       32               0.875               0.875              0.4375          0.00585938        41
       33               0.875               0.875                 0.5          0.00585938        42
       34               0.875               0.875              0.5625          0.00585938        43
       35               0.875               0.875               0.625          0.00585938        44
       36               0.875               0.875              0.6875          0.00585938        45
       37               0.875               0.875                0.75          0.00292969        46
       38              0.8125              0.8125                   0          0.00146484        51
       39              0.9375                0.75                0.75          0.00585938        52
       40               0.875              0.6875              0.6875          0.00585938        53
       41              0.8125               0.625               0.625          0.00585938        54
       42              0.8125              0.8125                0.25          0.00585938        55
       43              0.8125              0.8125              0.3125          0.00585938        56
       44              0.8125              0.8125               0.375          0.00585938        57
       45              0.8125              0.8125              0.4375          0.00585938        58
       46              0.8125              0.8125                 0.5          0.00585938        59
       47              0.8125              0.8125              0.5625          0.00585938        60
       48              0.8125              0.8125               0.625          0.00292969        61
       49                0.75                0.75                   0          0.00146484        68
       50              0.9375              0.6875              0.6875          0.00585938        69
       51               0.875               0.625               0.625          0.00585938        70
       52              0.8125              0.5625              0.5625          0.00585938        71
       53                0.75                0.75                0.25          0.00585938        72
       54                0.75                0.75              0.3125          0.00585938        73
       55                0.75                0.75               0.375          0.00585938        74
       56                0.75                0.75              0.4375          0.00585938        75
       57                0.75                0.75                 0.5          0.00292969        76
       58              0.6875              0.6875                   0          0.00146484        85
       59              0.9375               0.625               0.625          0.00585938        86
       60               0.875              0.5625              0.5625          0.00585938        87
       61              0.8125                 0.5                 0.5          0.00585938        88
       62              0.6875              0.6875                0.25          0.00585938        89
       63              0.6875              0.6875              0.3125          0.00585938        90
       64              0.6875              0.6875               0.375          0.00292969        91
       65               0.625               0.625                   0          0.00146484       102
       66              0.9375              0.5625              0.5625          0.00585938       103
       67               0.875                 0.5                 0.5          0.00585938       104
       68              0.8125              0.4375              0.4375          0.00585938       105
       69               0.625               0.625                0.25          0.00292969       106
       70              0.5625              0.5625                   0          0.00146484       119
       71              0.9375                 0.5                 0.5          0.00585938       120
       72               0.875              0.4375              0.4375          0.00292969       121
       73                   0                 0.5                 0.5         0.000732422       136
       74              0.9375               0.875              0.8125          0.00585938       291
       75              0.9375               0.875                0.75           0.0117188       292
       76              0.9375               0.875              0.6875           0.0117188       293
       77              0.9375               0.875               0.625           0.0117188       294
       78              0.9375               0.875              0.5625           0.0117188       295
       79              0.9375               0.875                 0.5           0.0117188       296
       80              0.9375               0.875              0.4375          0.00585938       297
       81              0.9375              0.8125                0.75          0.00585938       308
       82              0.9375              0.8125              0.6875           0.0117188       309
       83              0.9375              0.8125               0.625           0.0117188       310
       84              0.9375              0.8125              0.5625           0.0117188       311
       85              0.9375              0.8125                 0.5           0.0117188       312
       86              0.9375              0.8125              0.4375           0.0117188       313
       87              0.9375              0.8125               0.375           0.0117188       314
       88               0.875              0.8125                 0.5           0.0117188       315
       89               0.875              0.8125              0.5625           0.0117188       316
       90               0.875              0.8125               0.625           0.0117188       317
       91               0.875              0.8125              0.6875          0.00585938       318
       92              0.9375                0.75              0.6875          0.00585938       325
       93              0.9375                0.75               0.625           0.0117188       326
       94              0.9375                0.75              0.5625           0.0117188       327
       95              0.9375                0.75                 0.5           0.0117188       328
       96              0.9375                0.75              0.4375           0.0117188       329
       97              0.9375                0.75               0.375           0.0117188       330
       98              0.9375                0.75              0.3125           0.0117188       331
       99              0.9375                0.75                0.25           0.0117188       332
      100              0.8125                0.75              0.5625          0.00585938       333
      101              0.9375              0.6875               0.625          0.00585938       342
      102              0.9375              0.6875              0.5625           0.0117188       343
      103              0.9375              0.6875                 0.5           0.0117188       344
      104              0.9375              0.6875              0.4375           0.0117188       345
      105              0.9375              0.6875               0.375           0.0117188       346
      106              0.9375              0.6875              0.3125           0.0117188       347
      107              0.9375              0.6875                0.25          0.00585938       348
      108              0.9375               0.625              0.5625          0.00585938       359
      109              0.9375               0.625                 0.5           0.0117188       360
      110              0.9375               0.625              0.4375           0.0117188       361
      111              0.9375               0.625               0.375           0.0117188       362
      112              0.9375               0.625              0.3125          0.00585938       363
      113              0.9375              0.5625                 0.5          0.00585938       376
      114              0.9375              0.5625              0.4375           0.0117188       377
      115              0.9375              0.5625               0.375          0.00585938       378
      116              0.9375                 0.5              0.4375          0.00292969       393
      117               0.875                0.75               0.625          0.00585938       582
      118               0.875                0.75              0.5625           0.0117188       583
      119               0.875                0.75                 0.5           0.0117188       584
      120               0.875                0.75              0.4375           0.0117188       585
      121               0.875                0.75               0.375          0.00585938       586
      122               0.875              0.6875              0.5625          0.00585938       599
      123               0.875              0.6875                 0.5           0.0117188       600
      124               0.875              0.6875              0.4375           0.0117188       601
      125               0.875              0.6875               0.375           0.0117188       602
      126               0.875              0.6875              0.3125           0.0117188       603
      127              0.8125              0.6875              0.4375           0.0117188       604
      128              0.8125              0.6875                 0.5          0.00585938       605
      129               0.875               0.625                 0.5          0.00585938       616
      130               0.875               0.625              0.4375           0.0117188       617
      131               0.875               0.625               0.375           0.0117188       618
      132               0.875               0.625              0.3125           0.0117188       619
      133               0.875               0.625                0.25          0.00585938       620
      134               0.875              0.5625              0.4375          0.00585938       633
      135               0.875              0.5625               0.375           0.0117188       634
      136               0.875              0.5625              0.3125          0.00585938       635
      137               0.875                 0.5               0.375          0.00292969       650
      138              0.8125               0.625              0.4375          0.00585938       873
      139              0.8125               0.625               0.375           0.0117188       874
      140              0.8125               0.625              0.3125          0.00585938       875
      141              0.8125              0.5625               0.375          0.00585938       890
      142              0.8125              0.5625              0.3125           0.0117188       891
      143              0.8125              0.5625                0.25          0.00585938       892
      144              0.8125                 0.5              0.3125          0.00292969       907
      145                0.25                 0.5                0.75          0.00146484      1164
                               nkstot now = 145

  KPOINTS            DIRECT_X            DIRECT_Y            DIRECT_Z              WEIGHT
        1                   0                   0                   0         0.000244141
        2              0.9375              0.9375              0.9375          0.00195312
        3               0.875               0.875               0.875          0.00195312
        4              0.8125              0.8125              0.8125          0.00195312
        5                0.75                0.75                0.75          0.00195312
        6              0.6875              0.6875              0.6875          0.00195312
        7               0.625               0.625               0.625          0.00195312
        8              0.5625              0.5625              0.5625          0.00195312
        9                 0.5                 0.5                 0.5         0.000976562
       10              0.9375              0.9375                   0          0.00146484
       11              0.9375               0.875               0.875          0.00585938
       12               0.875              0.8125              0.8125          0.00585938
       13              0.9375              0.9375              0.1875          0.00585938
       14              0.9375              0.9375                0.25          0.00585938
       15              0.9375              0.9375              0.3125          0.00585938
       16              0.9375              0.9375               0.375          0.00585938
       17              0.9375              0.9375              0.4375          0.00585938
       18              0.9375              0.9375                 0.5          0.00585938
       19              0.9375              0.9375              0.5625          0.00585938
       20              0.9375              0.9375               0.625          0.00585938
       21              0.9375              0.9375              0.6875          0.00585938
       22              0.9375              0.9375                0.75          0.00585938
       23              0.9375              0.9375              0.8125          0.00585938
       24              0.9375              0.9375               0.875          0.00292969
       25               0.875               0.875                   0          0.00146484
       26              0.9375              0.8125              0.8125          0.00585938
       27               0.875                0.75                0.75          0.00585938
       28              0.8125              0.6875              0.6875          0.00585938
       29               0.875               0.875                0.25          0.00585938
       30               0.875               0.875              0.3125          0.00585938
       31               0.875               0.875               0.375          0.00585938
       32               0.875               0.875              0.4375          0.00585938
       33               0.875               0.875                 0.5          0.00585938
       34               0.875               0.875              0.5625          0.00585938
       35               0.875               0.875               0.625          0.00585938
       36               0.875               0.875              0.6875          0.00585938
       37               0.875               0.875                0.75          0.00292969
       38              0.8125              0.8125                   0          0.00146484
       39              0.9375                0.75                0.75          0.00585938
       40               0.875              0.6875              0.6875          0.00585938
       41              0.8125               0.625               0.625          0.00585938
       42              0.8125              0.8125                0.25          0.00585938
       43              0.8125              0.8125              0.3125          0.00585938
       44              0.8125              0.8125               0.375          0.00585938
       45              0.8125              0.8125              0.4375          0.00585938
       46              0.8125              0.8125                 0.5          0.00585938
       47              0.8125              0.8125              0.5625          0.00585938
       48              0.8125              0.8125               0.625          0.00292969
       49                0.75                0.75                   0          0.00146484
       50              0.9375              0.6875              0.6875          0.00585938
       51               0.875               0.625               0.625          0.00585938
       52              0.8125              0.5625              0.5625          0.00585938
       53                0.75                0.75                0.25          0.00585938
       54                0.75                0.75              0.3125          0.00585938
       55                0.75                0.75               0.375          0.00585938
       56                0.75                0.75              0.4375          0.00585938
       57                0.75                0.75                 0.5          0.00292969
       58              0.6875              0.6875                   0          0.00146484
       59              0.9375               0.625               0.625          0.00585938
       60               0.875              0.5625              0.5625          0.00585938
       61              0.8125                 0.5                 0.5          0.00585938
       62              0.6875              0.6875                0.25          0.00585938
       63              0.6875              0.6875              0.3125          0.00585938
       64              0.6875              0.6875               0.375          0.00292969
       65               0.625               0.625                   0          0.00146484
       66              0.9375              0.5625              0.5625          0.00585938
       67               0.875                 0.5                 0.5          0.00585938
       68              0.8125              0.4375              0.4375          0.00585938
       69               0.625               0.625                0.25          0.00292969
       70              0.5625              0.5625                   0          0.00146484
       71              0.9375                 0.5                 0.5          0.00585938
       72               0.875              0.4375              0.4375          0.00292969
       73                   0                 0.5                 0.5         0.000732422
       74              0.9375               0.875              0.8125          0.00585938
       75              0.9375               0.875                0.75           0.0117188
       76              0.9375               0.875              0.6875           0.0117188
       77              0.9375               0.875               0.625           0.0117188
       78              0.9375               0.875              0.5625           0.0117188
       79              0.9375               0.875                 0.5           0.0117188
       80              0.9375               0.875              0.4375          0.00585938
       81              0.9375              0.8125                0.75          0.00585938
       82              0.9375              0.8125              0.6875           0.0117188
       83              0.9375              0.8125               0.625           0.0117188
       84              0.9375              0.8125              0.5625           0.0117188
       85              0.9375              0.8125                 0.5           0.0117188
       86              0.9375              0.8125              0.4375           0.0117188
       87              0.9375              0.8125               0.375           0.0117188
       88               0.875              0.8125                 0.5           0.0117188
       89               0.875              0.8125              0.5625           0.0117188
       90               0.875              0.8125               0.625           0.0117188
       91               0.875              0.8125              0.6875          0.00585938
       92              0.9375                0.75              0.6875          0.00585938
       93              0.9375                0.75               0.625           0.0117188
       94              0.9375                0.75              0.5625           0.0117188
       95              0.9375                0.75                 0.5           0.0117188
       96              0.9375                0.75              0.4375           0.0117188
       97              0.9375                0.75               0.375           0.0117188
       98              0.9375                0.75              0.3125           0.0117188
       99              0.9375                0.75                0.25           0.0117188
      100              0.8125                0.75              0.5625          0.00585938
      101              0.9375              0.6875               0.625          0.00585938
      102              0.9375              0.6875              0.5625           0.0117188
      103              0.9375              0.6875                 0.5           0.0117188
      104              0.9375              0.6875              0.4375           0.0117188
      105              0.9375              0.6875               0.375           0.0117188
      106              0.9375              0.6875              0.3125           0.0117188
      107              0.9375              0.6875                0.25          0.00585938
      108              0.9375               0.625              0.5625          0.00585938
      109              0.9375               0.625                 0.5           0.0117188
      110              0.9375               0.625              0.4375           0.0117188
      111              0.9375               0.625               0.375           0.0117188
      112              0.9375               0.625              0.3125          0.00585938
      113              0.9375              0.5625                 0.5          0.00585938
      114              0.9375              0.5625              0.4375           0.0117188
      115              0.9375              0.5625               0.375          0.00585938
      116              0.9375                 0.5              0.4375          0.00292969
      117               0.875                0.75               0.625          0.00585938
      118               0.875                0.75              0.5625           0.0117188
      119               0.875                0.75                 0.5           0.0117188
      120               0.875                0.75              0.4375           0.0117188
      121               0.875                0.75               0.375          0.00585938
      122               0.875              0.6875              0.5625          0.00585938
      123               0.875              0.6875                 0.5           0.0117188
      124               0.875              0.6875              0.4375           0.0117188
      125               0.875              0.6875               0.375           0.0117188
      126               0.875              0.6875              0.3125           0.0117188
      127              0.8125              0.6875              0.4375           0.0117188
      128              0.8125              0.6875                 0.5          0.00585938
      129               0.875               0.625                 0.5          0.00585938
      130               0.875               0.625              0.4375           0.0117188
      131               0.875               0.625               0.375           0.0117188
      132               0.875               0.625              0.3125           0.0117188
      133               0.875               0.625                0.25          0.00585938
      134               0.875              0.5625              0.4375          0.00585938
      135               0.875              0.5625               0.375           0.0117188
      136               0.875              0.5625              0.3125          0.00585938
      137               0.875                 0.5               0.375          0.00292969
      138              0.8125               0.625              0.4375          0.00585938
      139              0.8125               0.625               0.375           0.0117188
      140              0.8125               0.625              0.3125          0.00585938
      141              0.8125              0.5625               0.375          0.00585938
      142              0.8125              0.5625              0.3125           0.0117188
      143              0.8125              0.5625                0.25          0.00585938
      144              0.8125                 0.5              0.3125          0.00292969
      145                0.25                 0.5                0.75          0.00146484

           k-point number in this process = 145
       minimum distributed K point number = 145

  KPOINTS         CARTESIAN_X         CARTESIAN_Y         CARTESIAN_Z              WEIGHT
        1                   0                   0                   0         0.000488281
        2              0.9375              0.9375              0.9375          0.00390625
        3               0.875               0.875               0.875          0.00390625
        4              0.8125              0.8125              0.8125          0.00390625
        5                0.75                0.75                0.75          0.00390625
        6              0.6875              0.6875              0.6875          0.00390625
        7               0.625               0.625               0.625          0.00390625
        8              0.5625              0.5625              0.5625          0.00390625
        9                 0.5                 0.5                 0.5          0.00195312
       10                   0                   0               1.875          0.00292969
       11              0.8125              0.9375              0.9375           0.0117188
       12                0.75               0.875               0.875           0.0117188
       13              0.1875              0.1875              1.6875           0.0117188
       14                0.25                0.25               1.625           0.0117188
       15              0.3125              0.3125              1.5625           0.0117188
       16               0.375               0.375                 1.5           0.0117188
       17              0.4375              0.4375              1.4375           0.0117188
       18                 0.5                 0.5               1.375           0.0117188
       19              0.5625              0.5625              1.3125           0.0117188
       20               0.625               0.625                1.25           0.0117188
       21              0.6875              0.6875              1.1875           0.0117188
       22                0.75                0.75               1.125           0.0117188
       23              0.8125              0.8125              1.0625           0.0117188
       24               0.875               0.875                   1          0.00585938
       25                   0                   0                1.75          0.00292969
       26              0.6875              0.9375              0.9375           0.0117188
       27               0.625               0.875               0.875           0.0117188
       28              0.5625              0.8125              0.8125           0.0117188
       29                0.25                0.25                 1.5           0.0117188
       30              0.3125              0.3125              1.4375           0.0117188
       31               0.375               0.375               1.375           0.0117188
       32              0.4375              0.4375              1.3125           0.0117188
       33                 0.5                 0.5                1.25           0.0117188
       34              0.5625              0.5625              1.1875           0.0117188
       35               0.625               0.625               1.125           0.0117188
       36              0.6875              0.6875              1.0625           0.0117188
       37                0.75                0.75                   1          0.00585938
       38                   0                   0               1.625          0.00292969
       39              0.5625              0.9375              0.9375           0.0117188
       40                 0.5               0.875               0.875           0.0117188
       41              0.4375              0.8125              0.8125           0.0117188
       42                0.25                0.25               1.375           0.0117188
       43              0.3125              0.3125              1.3125           0.0117188
       44               0.375               0.375                1.25           0.0117188
       45              0.4375              0.4375              1.1875           0.0117188
       46                 0.5                 0.5               1.125           0.0117188
       47              0.5625              0.5625              1.0625           0.0117188
       48               0.625               0.625                   1          0.00585938
       49                   0                   0                 1.5          0.00292969
       50              0.4375              0.9375              0.9375           0.0117188
       51               0.375               0.875               0.875           0.0117188
       52              0.3125              0.8125              0.8125           0.0117188
       53                0.25                0.25                1.25           0.0117188
       54              0.3125              0.3125              1.1875           0.0117188
       55               0.375               0.375               1.125           0.0117188
       56              0.4375              0.4375              1.0625           0.0117188
       57                 0.5                 0.5                   1          0.00585938
       58                   0                   0               1.375          0.00292969
       59              0.3125              0.9375              0.9375           0.0117188
       60                0.25               0.875               0.875           0.0117188
       61              0.1875              0.8125              0.8125           0.0117188
       62                0.25                0.25               1.125           0.0117188
       63              0.3125              0.3125              1.0625           0.0117188
       64               0.375               0.375                   1          0.00585938
       65                   0                   0                1.25          0.00292969
       66              0.1875              0.9375              0.9375           0.0117188
       67               0.125               0.875               0.875           0.0117188
       68              0.0625              0.8125              0.8125           0.0117188
       69                0.25                0.25                   1          0.00585938
       70                   0                   0               1.125          0.00292969
       71              0.0625              0.9375              0.9375           0.0117188
       72                   0               0.875               0.875          0.00585938
       73                   1                   0                   0          0.00146484
       74                0.75               0.875                   1           0.0117188
       75              0.6875              0.8125              1.0625           0.0234375
       76               0.625                0.75               1.125           0.0234375
       77              0.5625              0.6875              1.1875           0.0234375
       78                 0.5               0.625                1.25           0.0234375
       79              0.4375              0.5625              1.3125           0.0234375
       80               0.375                 0.5               1.375           0.0117188
       81               0.625               0.875                   1           0.0117188
       82              0.5625              0.8125              1.0625           0.0234375
       83                 0.5                0.75               1.125           0.0234375
       84              0.4375              0.6875              1.1875           0.0234375
       85               0.375               0.625                1.25           0.0234375
       86              0.3125              0.5625              1.3125           0.0234375
       87                0.25                 0.5               1.375           0.0234375
       88              0.4375              0.5625              1.1875           0.0234375
       89                 0.5               0.625               1.125           0.0234375
       90              0.5625              0.6875              1.0625           0.0234375
       91               0.625                0.75                   1           0.0117188
       92                 0.5               0.875                   1           0.0117188
       93              0.4375              0.8125              1.0625           0.0234375
       94               0.375                0.75               1.125           0.0234375
       95              0.3125              0.6875              1.1875           0.0234375
       96                0.25               0.625                1.25           0.0234375
       97              0.1875              0.5625              1.3125           0.0234375
       98               0.125                 0.5               1.375           0.0234375
       99              0.0625              0.4375              1.4375           0.0234375
      100                 0.5               0.625                   1           0.0117188
      101               0.375               0.875                   1           0.0117188
      102              0.3125              0.8125              1.0625           0.0234375
      103                0.25                0.75               1.125           0.0234375
      104              0.1875              0.6875              1.1875           0.0234375
      105               0.125               0.625                1.25           0.0234375
      106              0.0625              0.5625              1.3125           0.0234375
      107                   0                 0.5               1.375           0.0117188
      108                0.25               0.875                   1           0.0117188
      109              0.1875              0.8125              1.0625           0.0234375
      110               0.125                0.75               1.125           0.0234375
      111              0.0625              0.6875              1.1875           0.0234375
      112                   0               0.625                1.25           0.0117188
      113               0.125               0.875                   1           0.0117188
      114              0.0625              0.8125              1.0625           0.0234375
      115                   0                0.75               1.125           0.0117188
      116                   0               0.875                   1          0.00585938
      117                 0.5                0.75                   1           0.0117188
      118              0.4375              0.6875              1.0625           0.0234375
      119               0.375               0.625               1.125           0.0234375
      120              0.3125              0.5625              1.1875           0.0234375
      121                0.25                 0.5                1.25           0.0117188
      122               0.375                0.75                   1           0.0117188
      123              0.3125              0.6875              1.0625           0.0234375
      124                0.25               0.625               1.125           0.0234375
      125              0.1875              0.5625              1.1875           0.0234375
      126               0.125                 0.5                1.25           0.0234375
      127              0.3125              0.5625              1.0625           0.0234375
      128               0.375               0.625                   1           0.0117188
      129                0.25                0.75                   1           0.0117188
      130              0.1875              0.6875              1.0625           0.0234375
      131               0.125               0.625               1.125           0.0234375
      132              0.0625              0.5625              1.1875           0.0234375
      133                   0                 0.5                1.25           0.0117188
      134               0.125                0.75                   1           0.0117188
      135              0.0625              0.6875              1.0625           0.0234375
      136                   0               0.625               1.125           0.0117188
      137                   0                0.75                   1          0.00585938
      138                0.25               0.625                   1           0.0117188
      139              0.1875              0.5625              1.0625           0.0234375
      140               0.125                 0.5               1.125           0.0117188
      141               0.125               0.625                   1           0.0117188
      142              0.0625              0.5625              1.0625           0.0234375
      143                   0                 0.5               1.125           0.0117188
      144                   0               0.625                   1          0.00585938
      145                   1                 0.5                   0          0.00292969

  KPOINTS            DIRECT_X            DIRECT_Y            DIRECT_Z              WEIGHT
        1                   0                   0                   0         0.000488281
        2              0.9375              0.9375              0.9375          0.00390625
        3               0.875               0.875               0.875          0.00390625
        4              0.8125              0.8125              0.8125          0.00390625
        5                0.75                0.75                0.75          0.00390625
        6              0.6875              0.6875              0.6875          0.00390625
        7               0.625               0.625               0.625          0.00390625
        8              0.5625              0.5625              0.5625          0.00390625
        9                 0.5                 0.5                 0.5          0.00195312
       10              0.9375              0.9375                   0          0.00292969
       11              0.9375               0.875               0.875           0.0117188
       12               0.875              0.8125              0.8125           0.0117188
       13              0.9375              0.9375              0.1875           0.0117188
       14              0.9375              0.9375                0.25           0.0117188
       15              0.9375              0.9375              0.3125           0.0117188
       16              0.9375              0.9375               0.375           0.0117188
       17              0.9375              0.9375              0.4375           0.0117188
       18              0.9375              0.9375                 0.5           0.0117188
       19              0.9375              0.9375              0.5625           0.0117188
       20              0.9375              0.9375               0.625           0.0117188
       21              0.9375              0.9375              0.6875           0.0117188
       22              0.9375              0.9375                0.75           0.0117188
       23              0.9375              0.9375              0.8125           0.0117188
       24              0.9375              0.9375               0.875          0.00585938
       25               0.875               0.875                   0          0.00292969
       26              0.9375              0.8125              0.8125           0.0117188
       27               0.875                0.75                0.75           0.0117188
       28              0.8125              0.6875              0.6875           0.0117188
       29               0.875               0.875                0.25           0.0117188
       30               0.875               0.875              0.3125           0.0117188
       31               0.875               0.875               0.375           0.0117188
       32               0.875               0.875              0.4375           0.0117188
       33               0.875               0.875                 0.5           0.0117188
       34               0.875               0.875              0.5625           0.0117188
       35               0.875               0.875               0.625           0.0117188
       36               0.875               0.875              0.6875           0.0117188
       37               0.875               0.875                0.75          0.00585938
       38              0.8125              0.8125                   0          0.00292969
       39              0.9375                0.75                0.75           0.0117188
       40               0.875              0.6875              0.6875           0.0117188
       41              0.8125               0.625               0.625           0.0117188
       42              0.8125              0.8125                0.25           0.0117188
       43              0.8125              0.8125              0.3125           0.0117188
       44              0.8125              0.8125               0.375           0.0117188
       45              0.8125              0.8125              0.4375           0.0117188
       46              0.8125              0.8125                 0.5           0.0117188
       47              0.8125              0.8125              0.5625           0.0117188
       48              0.8125              0.8125               0.625          0.00585938
       49                0.75                0.75                   0          0.00292969
       50              0.9375              0.6875              0.6875           0.0117188
       51               0.875               0.625               0.625           0.0117188
       52              0.8125              0.5625              0.5625           0.0117188
       53                0.75                0.75                0.25           0.0117188
       54                0.75                0.75              0.3125           0.0117188
       55                0.75                0.75               0.375           0.0117188
       56                0.75                0.75              0.4375           0.0117188
       57                0.75                0.75                 0.5          0.00585938
       58              0.6875              0.6875                   0          0.00292969
       59              0.9375               0.625               0.625           0.0117188
       60               0.875              0.5625              0.5625           0.0117188
       61              0.8125                 0.5                 0.5           0.0117188
       62              0.6875              0.6875                0.25           0.0117188
       63              0.6875              0.6875              0.3125           0.0117188
       64              0.6875              0.6875               0.375          0.00585938
       65               0.625               0.625                   0          0.00292969
       66              0.9375              0.5625              0.5625           0.0117188
       67               0.875                 0.5                 0.5           0.0117188
       68              0.8125              0.4375              0.4375           0.0117188
       69               0.625               0.625                0.25          0.00585938
       70              0.5625              0.5625                   0          0.00292969
       71              0.9375                 0.5                 0.5           0.0117188
       72               0.875              0.4375              0.4375          0.00585938
       73                   0                 0.5                 0.5          0.00146484
       74              0.9375               0.875              0.8125           0.0117188
       75              0.9375               0.875                0.75           0.0234375
       76              0.9375               0.875              0.6875           0.0234375
       77              0.9375               0.875               0.625           0.0234375
       78              0.9375               0.875              0.5625           0.0234375
       79              0.9375               0.875                 0.5           0.0234375
       80              0.9375               0.875              0.4375           0.0117188
       81              0.9375              0.8125                0.75           0.0117188
       82              0.9375              0.8125              0.6875           0.0234375
       83              0.9375              0.8125               0.625           0.0234375
       84              0.9375              0.8125              0.5625           0.0234375
       85              0.9375              0.8125                 0.5           0.0234375
       86              0.9375              0.8125              0.4375           0.0234375
       87              0.9375              0.8125               0.375           0.0234375
       88               0.875              0.8125                 0.5           0.0234375
       89               0.875              0.8125              0.5625           0.0234375
       90               0.875              0.8125               0.625           0.0234375
       91               0.875              0.8125              0.6875           0.0117188
       92              0.9375                0.75              0.6875           0.0117188
       93              0.9375                0.75               0.625           0.0234375
       94              0.9375                0.75              0.5625           0.0234375
       95              0.9375                0.75                 0.5           0.0234375
       96              0.9375                0.75              0.4375           0.0234375
       97              0.9375                0.75               0.375           0.0234375
       98              0.9375                0.75              0.3125           0.0234375
       99              0.9375                0.75                0.25           0.0234375
      100              0.8125                0.75              0.5625           0.0117188
      101              0.9375              0.6875               0.625           0.0117188
      102              0.9375              0.6875              0.5625           0.0234375
      103              0.9375              0.6875                 0.5           0.0234375
      104              0.9375              0.6875              0.4375           0.0234375
      105              0.9375              0.6875               0.375           0.0234375
      106              0.9375              0.6875              0.3125           0.0234375
      107              0.9375              0.6875                0.25           0.0117188
      108              0.9375               0.625              0.5625           0.0117188
      109              0.9375               0.625                 0.5           0.0234375
      110              0.9375               0.625              0.4375           0.0234375
      111              0.9375               0.625               0.375           0.0234375
      112              0.9375               0.625              0.3125           0.0117188
      113              0.9375              0.5625                 0.5           0.0117188
      114              0.9375              0.5625              0.4375           0.0234375
      115              0.9375              0.5625               0.375           0.0117188
      116              0.9375                 0.5              0.4375          0.00585938
      117               0.875                0.75               0.625           0.0117188
      118               0.875                0.75              0.5625           0.0234375
      119               0.875                0.75                 0.5           0.0234375
      120               0.875                0.75              0.4375           0.0234375
      121               0.875                0.75               0.375           0.0117188
      122               0.875              0.6875              0.5625           0.0117188
      123               0.875              0.6875                 0.5           0.0234375
      124               0.875              0.6875              0.4375           0.0234375
      125               0.875              0.6875               0.375           0.0234375
      126               0.875              0.6875              0.3125           0.0234375
      127              0.8125              0.6875              0.4375           0.0234375
      128              0.8125              0.6875                 0.5           0.0117188
      129               0.875               0.625                 0.5           0.0117188
      130               0.875               0.625              0.4375           0.0234375
      131               0.875               0.625               0.375           0.0234375
      132               0.875               0.625              0.3125           0.0234375
      133               0.875               0.625                0.25           0.0117188
      134               0.875              0.5625              0.4375           0.0117188
      135               0.875              0.5625               0.375           0.0234375
      136               0.875              0.5625              0.3125           0.0117188
      137               0.875                 0.5               0.375          0.00585938
      138              0.8125               0.625              0.4375           0.0117188
      139              0.8125               0.625               0.375           0.0234375
      140              0.8125               0.625              0.3125           0.0117188
      141              0.8125              0.5625               0.375           0.0117188
      142              0.8125              0.5625              0.3125           0.0234375
      143              0.8125              0.5625                0.25           0.0117188
      144              0.8125                 0.5              0.3125          0.00585938
      145                0.25                 0.5                0.75          0.00292969
 DONE : INIT K-POINTS Time : 0.139972 (SEC)





 >>>>>>>>>>>>>>>>>>>>>>>>>>>>>>>>>>>>>>>>>>>>>>>>>>>>>>>>>>>>>>>>>>>>>>
 |                                                                    |
 | Setup plane waves:                                                 |
 | Use the energy cutoff and the lattice vectors to generate the      |
 | dimensions of FFT grid. The number of FFT grid on each processor   |
 | is 'nrxx'. The number of plane wave basis in reciprocal space is   |
 | different for charege/potential and wave functions. We also set    |
 | the 'sticks' for the parallel of FFT.                              |
 |                                                                    |
 <<<<<<<<<<<<<<<<<<<<<<<<<<<<<<<<<<<<<<<<<<<<<<<<<<<<<<<<<<<<<<<<<<<<<<





 SETUP THE PLANE WAVE BASIS
     energy cutoff for wavefunc (unit:Ry) = 75
            [fft grid for wave functions] = 30, 30, 30
          [fft grid for charge/potential] = 30, 30, 30
                      [fft grid division] = 1, 1, 1
      [big fft grid for charge/potential] = 30, 30, 30
                                     nbxx = 27000
                                     nrxx = 27000

 SETUP PLANE WAVES FOR CHARGE/POTENTIAL
                    number of plane waves = 7631
                         number of sticks = 511

 SETUP PLANE WAVES FOR WAVE FUNCTIONS
                    number of plane waves = 1639
                         number of sticks = 187

 PARALLEL PW FOR CHARGE/POTENTIAL
     PROC   COLUMNS(POT)             PW
        1            511           7631
 --------------- sum -------------------
        1            511           7631

 PARALLEL PW FOR WAVE FUNCTIONS
     PROC     COLUMNS(W)             PW
        1            187           1639
 --------------- sum -------------------
        1            187           1639

 SETUP COORDINATES OF PLANE WAVES
              number of total plane waves = 7631

 SETUP COORDINATES OF PLANE WAVES
                            number of |g| = 127
                                  max |g| = 372
                                  min |g| = 0
 DONE : INIT PLANEWAVE Time : 0.20137 (SEC)

                                     npwx = 960

 SETUP NONLOCAL PSEUDOPOTENTIALS IN PLANE WAVE BASIS
 Si non-local projectors:
      TOTAL NUMBER OF NONLOCAL PROJECTORS = 0

 nhm = 0, not allocate some matrix. DONE : LOCAL POTENTIAL Time : 0.241142 (SEC)


 Init Non-Local PseudoPotential table : 
 Init Non-Local-Pseudopotential done.
 DONE : NON-LOCAL POTENTIAL Time : 0.241194 (SEC)

                                start_pot = atomic
 DONE : INIT POTENTIAL Time : 0.262714 (SEC)


 Make real space PAO into reciprocal space.
       max mesh points in Pseudopotential = 1601
     dq(describe PAO in reciprocal space) = 0.01
                                    max q = 1045

 number of pseudo atomic orbitals for Si is 0
 DONE : INIT BASIS Time : 3.61941 (SEC)


 -------------------------------------------
 SELF-CONSISTENT
 -------------------------------------------

 PW ALGORITHM --------------- ION=   1  ELEC=   1--------------------------------
  K-point    CG iter num      Time(Sec)
        1       7.416667       0.157618
        2       7.166667       0.145700
        3       7.166667       0.157487
        4       7.166667       0.151835
        5       6.833333       0.139641
        6       7.166667       0.146676
        7       8.000000       0.158397
        8       7.583333       0.152702
        9       6.750000       0.140744
       10       7.666667       0.158860
       11       8.333333       0.166117
       12       7.750000       0.155599
       13       7.166667       0.149872
       14       6.916667       0.142161
       15       7.416667       0.149501
       16       6.833333       0.139208
       17       7.500000       0.149407
       18       7.666667       0.156449
       19       7.416667       0.156985
       20       6.916667       0.146370
       21       6.750000       0.145750
       22       8.166667       0.167806
       23       7.583333       0.159476
       24       7.583333       0.158464
       25       8.083333       0.175811
       26       7.333333       0.156728
       27       7.500000       0.158551
       28       7.583333       0.161599
       29       7.000000       0.146825
       30       8.000000       0.166083
       31       7.083333       0.151324
       32       7.750000       0.146708
       33       7.500000       0.116230
       34       7.500000       0.117875
       35       8.333333       0.145098
       36       6.916667       0.145440
       37       8.000000       0.171294
       38       8.000000       0.170778
       39       7.083333       0.154783
       40       7.916667       0.169426
       41       7.166667       0.158640
       42       7.583333       0.170258
       43       7.000000       0.163552
       44       7.333333       0.126735
       45       7.166667       0.120624
       46       7.500000       0.124912
       47       7.666667       0.125972
       48       6.500000       0.109848
       49       6.500000       0.108464
       50       7.833333       0.128101
       51       7.666667       0.122640
       52       8.333333       0.142801
       53       7.833333       0.157292
       54       7.750000       0.151470
       55       7.583333       0.122043
       56       6.250000       0.103587
       57       6.500000       0.114228
       58       6.666667       0.117107
       59       7.666667       0.125985
       60       7.250000       0.120952
       61       7.250000       0.122532
       62       8.166667       0.139967
       63       8.250000       0.137231
       64       6.250000       0.111840
       65       7.250000       0.120687
       66       8.166667       0.157301
       67       7.833333       0.213486
       68       7.083333       0.190523
       69       6.500000       0.163481
       70       7.000000       0.165458
       71       7.500000       0.193375
       72       6.500000       0.159215
       73       6.916667       0.168347
       74       8.250000       0.212531
       75       8.416667       0.223444
       76       7.333333       0.186706
       77       8.583333       0.203236
       78       7.666667       0.181964
       79       7.833333       0.183137
       80       6.166667       0.162011
       81       7.583333       0.192100
       82       7.583333       0.191784
       83       8.083333       0.204469
       84       6.916667       0.174719
       85       7.416667       0.208492
       86       7.250000       0.144292
       87       7.750000       0.166691
       88       7.000000       0.156037
       89       7.333333       0.153073
       90       6.750000       0.145870
       91       7.250000       0.169982
       92       8.250000       0.198101
       93       8.166667       0.186540
       94       7.083333       0.168822
       95       7.583333       0.184198
       96       7.333333       0.171893
       97       7.333333       0.176587
       98       7.166667       0.177523
       99       7.000000       0.181446
      100       7.416667       0.204619
      101       7.000000       0.195647
      102       8.000000       0.216719
      103       7.500000       0.211127
      104       7.583333       0.239140
      105       6.916667       0.220305
      106       7.750000       0.218199
      107       7.000000       0.149650
      108       6.583333       0.154770
      109       8.083333       0.199002
      110       7.833333       0.191642
      111       7.416667       0.177048
      112       7.416667       0.153957
      113       7.333333       0.152005
      114       7.666667       0.173203
      115       7.666667       0.174931
      116       7.000000       0.176904
      117       6.916667       0.175428
      118       7.083333       0.180670
      119       7.916667       0.200585
      120       7.583333       0.187889
      121       6.750000       0.170218
      122       8.250000       0.206074
      123       7.583333       0.188732
      124       7.000000       0.178137
      125       7.083333       0.178878
      126       8.333333       0.210171
      127       7.083333       0.182831
      128       7.583333       0.195967
      129       6.500000       0.168339
      130       7.833333       0.195952
      131       8.666667       0.215288
      132       7.750000       0.189711
      133       7.500000       0.189234
      134       7.416667       0.190663
      135       7.166667       0.183381
      136       6.250000       0.158062
      137       6.416667       0.165655
      138       7.250000       0.176311
      139       7.500000       0.185007
      140       6.916667       0.175654
      141       6.666667       0.168214
      142       7.416667       0.183742
      143       7.583333       0.186073
      144       6.666667       0.167609
      145       5.500000       0.141947

 Density error is 0.107808331600
                          Error Threshold = 0.010000000000

       Energy                       Rydberg                            eV
   E_KohnSham               -8.012190539818             -109.011444803217
     E_Harris               -8.027435778396             -109.218866915256
      E_Fermi               +0.927174040339              +12.614849986286

 PW ALGORITHM --------------- ION=   1  ELEC=   2--------------------------------
  K-point    CG iter num      Time(Sec)
        1       2.000000       0.060325
        2       2.583333       0.063961
        3       2.083333       0.055268
        4       2.083333       0.064465
        5       2.166667       0.067724
        6       2.083333       0.063298
        7       2.083333       0.065441
        8       2.000000       0.061445
        9       2.500000       0.075568
       10       2.250000       0.067538
       11       2.000000       0.063133
       12       2.083333       0.064383
       13       2.000000       0.061575
       14       2.500000       0.075162
       15       2.000000       0.064817
       16       2.000000       0.064242
       17       2.333333       0.070670
       18       2.083333       0.066989
       19       2.000000       0.063979
       20       2.333333       0.070322
       21       2.166667       0.068184
       22       2.000000       0.064952
       23       2.083333       0.065890
       24       2.000000       0.064530
       25       2.250000       0.067203
       26       2.583333       0.077378
       27       2.000000       0.066837
       28       2.000000       0.065464
       29       2.000000       0.067878
       30       2.083333       0.066471
       31       2.000000       0.064929
       32       2.500000       0.076399
       33       2.000000       0.065463
       34       2.000000       0.061134
       35       2.000000       0.064127
       36       2.416667       0.076413
       37       2.083333       0.064556
       38       2.250000       0.070778
       39       2.000000       0.064276
       40       2.000000       0.065168
       41       2.000000       0.064246
       42       2.000000       0.062606
       43       2.000000       0.061006
       44       2.083333       0.065931
       45       2.000000       0.064464
       46       2.000000       0.064758
       47       2.250000       0.069568
       48       2.416667       0.072910
       49       2.250000       0.070096
       50       2.000000       0.064418
       51       2.166667       0.064133
       52       2.083333       0.066740
       53       2.166667       0.068970
       54       2.083333       0.066060
       55       2.000000       0.065489
       56       2.000000       0.063777
       57       2.000000       0.064434
       58       2.250000       0.072584
       59       2.333333       0.069870
       60       2.083333       0.064550
       61       2.250000       0.070526
       62       2.250000       0.071731
       63       2.000000       0.064808
       64       2.000000       0.063385
       65       2.166667       0.067253
       66       2.500000       0.077496
       67       2.000000       0.063245
       68       2.166667       0.064085
       69       2.000000       0.063514
       70       2.000000       0.063628
       71       2.250000       0.069265
       72       2.500000       0.072635
       73       2.500000       0.074149
       74       2.333333       0.071863
       75       2.250000       0.068878
       76       2.083333       0.065819
       77       2.166667       0.069420
       78       2.000000       0.064684
       79       2.083333       0.065016
       80       2.000000       0.066377
       81       2.083333       0.071306
       82       2.250000       0.069857
       83       2.083333       0.065636
       84       2.000000       0.063944
       85       2.333333       0.072077
       86       2.000000       0.066848
       87       2.083333       0.065381
       88       2.000000       0.058980
       89       2.250000       0.072309
       90       2.000000       0.065783
       91       2.000000       0.061020
       92       2.000000       0.065878
       93       2.166667       0.067053
       94       2.250000       0.069838
       95       2.166667       0.066359
       96       2.000000       0.064056
       97       2.000000       0.062491
       98       2.000000       0.063536
       99       2.000000       0.064042
      100       2.083333       0.067183
      101       2.583333       0.078381
      102       2.166667       0.066249
      103       2.000000       0.062977
      104       2.000000       0.077977
      105       2.000000       0.068322
      106       2.166667       0.072936
      107       2.000000       0.067898
      108       2.833333       0.086258
      109       2.416667       0.076223
      110       2.000000       0.070047
      111       2.083333       0.069087
      112       2.000000       0.066029
      113       2.500000       0.079402
      114       3.000000       0.091154
      115       2.333333       0.076453
      116       2.083333       0.067787
      117       2.000000       0.067089
      118       2.000000       0.068278
      119       2.083333       0.066186
      120       2.000000       0.065387
      121       2.000000       0.068824
      122       2.166667       0.071454
      123       2.000000       0.067403
      124       2.000000       0.065639
      125       2.083333       0.069146
      126       2.000000       0.068533
      127       2.083333       0.069571
      128       2.083333       0.069349
      129       2.000000       0.067839
      130       2.250000       0.073690
      131       2.083333       0.069985
      132       2.250000       0.074364
      133       2.000000       0.065776
      134       2.500000       0.078025
      135       2.583333       0.083270
      136       2.000000       0.068405
      137       2.000000       0.068812
      138       2.000000       0.065653
      139       2.000000       0.066672
      140       2.000000       0.069021
      141       2.250000       0.073251
      142       3.333333       0.101017
      143       2.000000       0.068003
      144       2.000000       0.068599
      145       3.166667       0.094276

 Density error is 0.008485418979
                          Error Threshold = 0.002695208290

       Energy                       Rydberg                            eV
   E_KohnSham               -8.025953108180             -109.198694152058
     E_Harris               -8.019228047243             -109.107195003925
      E_Fermi               +0.919064080589              +12.504508323148

 PW ALGORITHM --------------- ION=   1  ELEC=   3--------------------------------
  K-point    CG iter num      Time(Sec)
        1       2.833333       0.090806
        2       2.583333       0.077717
        3       3.000000       0.091402
        4       2.583333       0.082091
        5       2.333333       0.076248
        6       2.416667       0.076373
        7       2.416667       0.079486
        8       2.583333       0.081370
        9       3.333333       0.101502
       10       3.250000       0.099385
       11       2.833333       0.089042
       12       2.750000       0.086008
       13       2.833333       0.090140
       14       2.583333       0.078766
       15       2.500000       0.081942
       16       2.750000       0.086659
       17       2.750000       0.089082
       18       3.083333       0.095224
       19       2.666667       0.085336
       20       2.416667       0.078186
       21       3.250000       0.098612
       22       2.916667       0.092647
       23       3.833333       0.113528
       24       3.166667       0.096693
       25       3.333333       0.101586
       26       3.083333       0.094971
       27       3.000000       0.093861
       28       2.500000       0.081487
       29       2.833333       0.089191
       30       2.666667       0.084585
       31       3.083333       0.098135
       32       2.666667       0.082919
       33       2.666667       0.085111
       34       2.583333       0.082379
[...]
       1       4.234728       0.011719
       2       9.640404       0.011719
       3      14.657334       0.000000
       4      15.246651       0.000000
       5      20.385542       0.000000
       6      21.682827       0.000000
       7      42.087061       0.000000
       8      46.687024       0.000000
       9      47.119281       0.000000
      10      49.236052       0.000000
      11      52.538676       0.000000
      12      52.604528       0.000000

 114/145 kpoint (Cartesian) = 0.062500 0.812500 1.062500 (952 pws)
       1       5.678424       0.023438
       2       8.439058       0.023438
       3      12.499997       0.012025
       4      15.134584       0.000000
       5      21.032242       0.000000
       6      23.807239       0.000000
       7      40.964416       0.000000
       8      43.516978       0.000000
       9      46.708940       0.000000
      10      49.753294       0.000000
      11      51.771482       0.000000
      12      53.992912       0.000000

 115/145 kpoint (Cartesian) = 0.000000 0.750000 1.125000 (948 pws)
       1       7.091490       0.011719
       2       7.711377       0.011719
       3      10.324447       0.011719
       4      15.495729       0.000000
       5      21.472214       0.000000
       6      26.725478       0.000000
       7      39.770079       0.000000
       8      40.265716       0.000000
       9      45.096612       0.000000
      10      47.057149       0.000000
      11      53.794178       0.000000
      12      54.269630       0.000000

 116/145 kpoint (Cartesian) = 0.000000 0.875000 1.000000 (950 pws)
       1       6.411242       0.005859
       2       7.147325       0.005859
       3      14.487905       0.000000
       4      15.069952       0.000000
       5      20.216318       0.000000
       6      21.518054       0.000000
       7      44.460524       0.000000
       8      44.598538       0.000000
       9      49.115706       0.000000
      10      50.534623       0.000000
      11      50.739130       0.000000
      12      51.467256       0.000000

 117/145 kpoint (Cartesian) = 0.500000 0.750000 1.000000 (942 pws)
       1      -0.812386       0.011719
       2      15.049048       0.000000
       3      15.599479       0.000000
       4      20.684281       0.000000
       5      26.072322       0.000000
       6      26.839867       0.000000
       7      32.070224       0.000000
       8      36.657916       0.000000
       9      38.269868       0.000000
      10      42.971383       0.000000
      11      43.342960       0.000000
      12      48.537149       0.000000

 118/145 kpoint (Cartesian) = 0.437500 0.687500 1.062500 (940 pws)
       1       0.326932       0.023438
       2      12.444305       0.018574
       3      15.136414       0.000000
       4      19.223360       0.000000
       5      26.180314       0.000000
       6      28.604578       0.000000
       7      30.887905       0.000000
       8      37.115535       0.000000
       9      39.911413       0.000000
      10      41.980345       0.000000
      11      46.691842       0.000000
      12      49.924810       0.000000

 119/145 kpoint (Cartesian) = 0.375000 0.625000 1.125000 (939 pws)
       1       1.715149       0.023438
       2       9.837781       0.023438
       3      15.133262       0.000000
       4      17.984565       0.000000
       5      26.170670       0.000000
       6      29.042706       0.000000
       7      31.861731       0.000000
       8      37.273538       0.000000
       9      40.249656       0.000000
      10      42.669977       0.000000
      11      46.170740       0.000000
      12      51.007192       0.000000

 120/145 kpoint (Cartesian) = 0.312500 0.562500 1.187500 (943 pws)
       1       3.340108       0.023438
       2       7.473560       0.023438
       3      15.339934       0.000000
       4      17.031520       0.000000
       5      26.305023       0.000000
       6      28.329172       0.000000
       7      34.458923       0.000000
       8      37.459963       0.000000
       9      39.457217       0.000000
      10      41.788025       0.000000
      11      46.462741       0.000000
      12      52.649754       0.000000

 121/145 kpoint (Cartesian) = 0.250000 0.500000 1.250000 (948 pws)
       1       4.851821       0.011719
       2       5.714556       0.011719
       3      15.538642       0.000000
       4      16.583649       0.000000
       5      26.415250       0.000000
       6      27.997084       0.000000
       7      36.488585       0.000000
       8      37.267051       0.000000
       9      39.119023       0.000000
      10      39.987240       0.000000
      11      49.123621       0.000000
      12      49.666690       0.000000

 122/145 kpoint (Cartesian) = 0.375000 0.750000 1.000000 (936 pws)
       1       0.707054       0.011719
       2      13.864139       0.000000
       3      14.357951       0.000000
       4      17.065654       0.000000
       5      24.899046       0.000000
       6      25.783130       0.000000
       7      33.514867       0.000000
       8      40.594624       0.000000
       9      42.203920       0.000000
      10      44.761730       0.000000
      11      44.899155       0.000000
      12      50.295879       0.000000

 123/145 kpoint (Cartesian) = 0.312500 0.687500 1.062500 (937 pws)
       1       2.011508       0.023438
       2      11.421094       0.023438
       3      14.020477       0.000000
       4      15.767651       0.000000
       5      25.231346       0.000000
       6      27.887889       0.000000
       7      32.285402       0.000000
       8      41.049369       0.000000
       9      43.306160       0.000000
      10      43.962092       0.000000
      11      46.759263       0.000000
      12      49.068912       0.000000

 124/145 kpoint (Cartesian) = 0.250000 0.625000 1.125000 (935 pws)
       1       3.558743       0.023438
       2       8.992972       0.023438
       3      13.890490       0.000000
       4      14.964464       0.000000
       5      25.446963       0.000000
       6      30.118410       0.000000
       7      31.765790       0.000000
       8      40.365169       0.000000
       9      42.518891       0.000000
      10      42.814773       0.000000
      11      47.894052       0.000000
      12      52.934782       0.000000

 125/145 kpoint (Cartesian) = 0.187500 0.562500 1.187500 (945 pws)
       1       5.280294       0.023438
       2       6.865918       0.023438
       3      13.374385       0.000000
       4      15.058099       0.000000
       5      25.870240       0.000000
       6      30.025518       0.000000
       7      34.015044       0.000000
       8      37.865687       0.000000
       9      41.333812       0.000000
      10      42.873478       0.000000
      11      49.541099       0.000000
      12      50.874861       0.000000

 126/145 kpoint (Cartesian) = 0.125000 0.500000 1.250000 (945 pws)
       1       4.705040       0.023438
       2       7.521499       0.023438
       3      12.835342       0.000000
       4      15.682489       0.000000
       5      26.497773       0.000000
       6      29.523803       0.000000
       7      34.596141       0.000000
       8      37.310704       0.000000
       9      40.754718       0.000000
      10      43.292007       0.000000
      11      46.642373       0.000000
      12      54.065976       0.000000

 127/145 kpoint (Cartesian) = 0.312500 0.562500 1.062500 (940 pws)
       1       3.015905       0.023438
       2       9.768190       0.023438
       3      12.507702       0.011014
       4      16.610845       0.000000
       5      27.270680       0.000000
       6      29.203319       0.000000
       7      31.851367       0.000000
       8      39.451780       0.000000
       9      41.016158       0.000000
      10      43.094827       0.000000
      11      45.342326       0.000000
      12      49.938148       0.000000

 128/145 kpoint (Cartesian) = 0.375000 0.625000 1.000000 (943 pws)
       1       1.548284       0.011719
       2      12.011874       0.011719
       3      12.683001       0.000065
       4      17.799792       0.000000
       5      27.952292       0.000000
       6      28.439104       0.000000
       7      30.253110       0.000000
       8      39.061559       0.000000
       9      40.422290       0.000000
      10      44.533043       0.000000
      11      45.486587       0.000000
      12      47.244991       0.000000

 129/145 kpoint (Cartesian) = 0.250000 0.750000 1.000000 (944 pws)
       1       2.559139       0.011719
       2      12.850679       0.000000
       3      13.016597       0.000000
       4      14.278872       0.000000
       5      24.058076       0.000000
       6      25.014201       0.000000
       7      35.329436       0.000000
       8      44.309147       0.000000
       9      44.804803       0.000000
      10      46.817652       0.000000
      11      47.662479       0.000000
      12      48.424330       0.000000

 130/145 kpoint (Cartesian) = 0.187500 0.687500 1.062500 (942 pws)
       1       4.023784       0.023438
       2      10.669645       0.023438
       3      12.115279       0.023437
       4      13.772805       0.000000
       5      24.584847       0.000000
       6      27.317435       0.000000
       7      34.194112       0.000000
       8      41.830074       0.000000
       9      44.802176       0.000000
      10      46.820760       0.000000
      11      49.540573       0.000000
      12      51.104582       0.000000

 131/145 kpoint (Cartesian) = 0.125000 0.625000 1.125000 (938 pws)
       1       5.708733       0.023438
       2       8.473165       0.023438
       3      11.217045       0.023438
       4      14.028855       0.000000
       5      24.983153       0.000000
       6      30.170723       0.000000
       7      33.336884       0.000000
       8      38.474570       0.000000
       9      44.099813       0.000000
      10      46.961715       0.000000
      11      50.081952       0.000000
      12      52.419324       0.000000

 132/145 kpoint (Cartesian) = 0.062500 0.562500 1.187500 (937 pws)
       1       6.277535       0.023438
       2       7.821795       0.023438
       3      10.543432       0.023438
       4      14.620419       0.000000
       5      25.590532       0.000000
       6      32.082572       0.000000
       7      33.592121       0.000000
       8      35.552529       0.000000
       9      43.297694       0.000000
      10      46.196155       0.000000
      11      48.331088       0.000000
      12      53.237036       0.000000

 133/145 kpoint (Cartesian) = 0.000000 0.500000 1.250000 (938 pws)
       1       4.557819       0.011719
       2       9.639301       0.011719
       3      10.407499       0.011719
       4      15.486051       0.000000
       5      26.405822       0.000000
       6      31.492852       0.000000
       7      32.304594       0.000000
       8      37.311631       0.000000
       9      42.117702       0.000000
      10      44.178023       0.000000
      11      48.575574       0.000000
      12      49.202205       0.000000

 134/145 kpoint (Cartesian) = 0.125000 0.750000 1.000000 (948 pws)
       1       4.734326       0.011719
       2      10.076784       0.011719
       3      12.507693       0.005508
       4      13.399194       0.000000
       5      23.552592       0.000000
       6      24.547101       0.000000
       7      37.475521       0.000000
       8      42.677635       0.000000
       9      47.342663       0.000000
      10      49.272064       0.000000
      11      51.594984       0.000000
      12      51.601222       0.000000

 135/145 kpoint (Cartesian) = 0.062500 0.687500 1.062500 (941 pws)
       1       6.336687       0.023438
       2       8.994094       0.023438
       3      10.603802       0.023438
       4      13.320924       0.000000
       5      24.258864       0.000000
       6      27.019181       0.000000
       7      36.436632       0.000000
       8      39.176480       0.000000
       9      47.157415       0.000000
      10      50.115152       0.000000
      11      51.655270       0.000000
      12      53.161510       0.000000

 136/145 kpoint (Cartesian) = 0.000000 0.625000 1.125000 (934 pws)
       1       7.857030       0.011719
       2       7.941252       0.011719
       3       9.139129       0.011719
       4      13.828365       0.000000
       5      24.825815       0.000000
       6      30.082201       0.000000
       7      35.222304       0.000000
       8      36.271126       0.000000
       9      45.810398       0.000000
      10      47.626846       0.000000
      11      52.231760       0.000000
      12      52.611098       0.000000

 137/145 kpoint (Cartesian) = 0.000000 0.750000 1.000000 (952 pws)
       1       6.921422       0.005859
       2       7.603939       0.005859
       3      12.338002       0.005798
       4      13.190459       0.000000
       5      23.383966       0.000000
       6      24.390525       0.000000
       7      39.612181       0.000000
       8      40.322113       0.000000
       9      49.438315       0.000000
      10      51.034205       0.000000
      11      51.216616       0.000000
      12      52.144405       0.000000

 138/145 kpoint (Cartesian) = 0.250000 0.625000 1.000000 (937 pws)
       1       3.395446       0.011719
       2      11.163475       0.011719
       3      11.763297       0.011719
       4      14.447403       0.000000
       5      27.603510       0.000000
       6      28.018008       0.000000
       7      31.237837       0.000000
       8      41.152510       0.000000
       9      43.332358       0.000000
      10      45.550666       0.000000
      11      47.669653       0.000000
      12      48.186855       0.000000

 139/145 kpoint (Cartesian) = 0.187500 0.562500 1.062500 (937 pws)
       1       5.014663       0.023438
       2       9.089564       0.023438
       3      11.714736       0.023438
       4      13.465682       0.000000
       5      27.960153       0.000000
       6      29.552573       0.000000
       7      31.487614       0.000000
       8      37.811947       0.000000
       9      44.316409       0.000000
      10      46.358192       0.000000
      11      48.329284       0.000000
      12      51.952306       0.000000

 140/145 kpoint (Cartesian) = 0.125000 0.500000 1.125000 (942 pws)
       1       6.534345       0.011719
       2       7.340971       0.011719
       3      11.896204       0.011719
       4      13.016470       0.000000
       5      28.073202       0.000000
       6      29.521271       0.000000
       7      33.551178       0.000000
       8      35.223934       0.000000
       9      44.595284       0.000000
      10      46.169596       0.000000
      11      50.778009       0.000000
      12      51.417191       0.000000

 141/145 kpoint (Cartesian) = 0.125000 0.625000 1.000000 (947 pws)
       1       5.560503       0.011719
       2      10.528161       0.011719
       3      10.654089       0.011719
       4      12.044375       0.011719
       5      27.100684       0.000000
       6      27.759876       0.000000
       7      33.148285       0.000000
       8      38.395623       0.000000
       9      47.325419       0.000000
      10      49.806059       0.000000
      11      50.278604       0.000000
      12      50.726429       0.000000

 142/145 kpoint (Cartesian) = 0.062500 0.562500 1.062500 (938 pws)
       1       7.275279       0.023438
       2       8.707581       0.023438
       3      10.119599       0.023438
       4      11.862371       0.023438
       5      27.814706       0.000000
       6      30.288201       0.000000
       7      32.372539       0.000000
       8      35.151338       0.000000
       9      47.746472       0.000000
      10      50.036602       0.000000
      11      51.607757       0.000000
      12      52.691201       0.000000

 143/145 kpoint (Cartesian) = 0.000000 0.500000 1.125000 (937 pws)
       1       6.687540       0.011719
       2       9.129592       0.011719
       3       9.844664       0.011719
       4      12.469193       0.007959
       5      28.391640       0.000000
       6      30.994484       0.000000
       7      31.706108       0.000000
       8      34.681582       0.000000
       9      46.678082       0.000000
      10      48.650677       0.000000
      11      51.057417       0.000000
      12      51.200831       0.000000

 144/145 kpoint (Cartesian) = 0.000000 0.625000 1.000000 (944 pws)
       1       7.771230       0.005859
       2       8.299215       0.005859
       3      10.484242       0.005859
       4      11.569417       0.005859
       5      26.932871       0.000000
       6      27.647772       0.000000
       7      35.058209       0.000000
       8      36.162323       0.000000
       9      49.842870       0.000000
      10      51.801723       0.000000
      11      51.957969       0.000000
      12      52.732904       0.000000

 145/145 kpoint (Cartesian) = 1.000000 0.500000 0.000000 (932 pws)
       1       8.812509       0.002930
       2       8.959641       0.002930
       3       8.959641       0.002930
       4      10.741283       0.002930
       5      30.111900       0.000000
       6      30.827975       0.000000
       7      30.827975       0.000000
       8      33.390945       0.000000
       9      50.049964       0.000000
      10      52.488906       0.000000
      11      52.488905       0.000000
      12      53.048173       0.000000



 --------------------------------------------
 !FINAL_ETOT_IS -109.2038072116332614 eV
 --------------------------------------------






  |CLASS_NAME---------|NAME---------------|TIME(Sec)-----|CALLS----|AVG------|PER%-------
                                      total         93.685        17      5.51    100.00%
                 Run_pw     plane_wave_line          93.68         1     93.68     99.99%
                Cell_PW        opt_cells_pw          93.47         1     93.47     99.77%
                    FFT               FFT3D          62.04     98204      0.00     66.22%
               wavefunc             wfcinit           3.36         1      3.36      3.58%
              Hamilt_PW      diagH_subspace          15.14       725      0.02     16.16%
              Hamilt_PW               h_psi          74.70     36765      0.00     79.73%
              Hamilt_PW                vloc          73.90     36765      0.00     78.88%
                 Hamilt        diagH_LAPACK           0.29       725      0.00      0.31%
                   Ions         opt_ions_pw          90.05         1     90.05     96.12%
              Electrons     self_consistent          90.05         1     90.05     96.12%
              Electrons             c_bands          43.59         3     14.53     46.53%
                 Hamilt            diagH_pw          81.51       725      0.11     87.00%
               Diago_CG                diag          68.85       725      0.09     73.49%
              electrons             c_bands          32.52         3     10.84     34.71%
                 Charge            sum_band           7.53         5      1.51      8.04%
                 Charge             mix_rho           0.10         5      0.02      0.11%
 ----------------------------------------------------------------------------------------

 CLASS_NAME---------|NAME---------------|MEMORY(MB)--------
                                         33.6499
             wavefunc                 evc        25.4883
         Charge_Pulay                Rrho         1.6479
         Charge_Pulay               dRrho         1.4420
         Charge_Pulay                drho         1.4420
 ----------------------------------------------------------

 Start  Time  : Fri Sep 10 11:31:50 2021
 Finish Time  : Fri Sep 10 11:33:24 2021
 Total  Time  : 0 h 1 mins 34 secs 
