                                                                                     
                             WELCOME TO ABACUS v3.0                                  
                                                                                     
               'Atomic-orbital Based Ab-initio Computation at UStc'                  
                                                                                     
                     Website: http://abacus.ustc.edu.cn/                             
                                                                                     
    Version: Parallel, in development
    Processor Number is 1
    Start Time is Mon Mar  6 13:58:28 2023
                                                                                     
 ------------------------------------------------------------------------------------

 READING GENERAL INFORMATION
                           global_out_dir = OUT.blpstest/
                           global_in_card = INPUT
                               pseudo_dir = 
                              orbital_dir = 
                                    DRANK = 1
                                    DSIZE = 1
                                   DCOLOR = 1
                                    GRANK = 1
                                    GSIZE = 1
 The esolver type has been set to : ksdft_pw




 >>>>>>>>>>>>>>>>>>>>>>>>>>>>>>>>>>>>>>>>>>>>>>>>>>>>>>>>>>>>>>>>>>>>>>
 |                                                                    |
 | Reading atom information in unitcell:                              |
 | From the input file and the structure file we know the number of   |
 | different elments in this unitcell, then we list the detail        |
 | information for each element, especially the zeta and polar atomic |
 | orbital number for each element. The total atom number is counted. |
 | We calculate the nearest atom distance for each atom and show the  |
 | Cartesian and Direct coordinates for each atom. We list the file   |
 | address for atomic orbitals. The volume and the lattice vectors    |
 | in real and reciprocal space is also shown.                        |
 |                                                                    |
 <<<<<<<<<<<<<<<<<<<<<<<<<<<<<<<<<<<<<<<<<<<<<<<<<<<<<<<<<<<<<<<<<<<<<<




 READING UNITCELL INFORMATION
                                    ntype = 2
                 atom label for species 1 = Li
                 atom label for species 2 = Mg
                  lattice constant (Bohr) = 11.9225
              lattice constant (Angstrom) = 6.30913

 READING ATOM TYPE 1
                               atom label = Li
                      L=0, number of zeta = 1
                      L=1, number of zeta = 1
                      L=2, number of zeta = 1
             number of atom for this type = 12
                      start magnetization = FALSE
                      start magnetization = FALSE
                      start magnetization = FALSE
                      start magnetization = FALSE
                      start magnetization = FALSE
                      start magnetization = FALSE
                      start magnetization = FALSE
                      start magnetization = FALSE
                      start magnetization = FALSE
                      start magnetization = FALSE
                      start magnetization = FALSE
                      start magnetization = FALSE

 READING ATOM TYPE 2
                               atom label = Mg
                      L=0, number of zeta = 1
                      L=1, number of zeta = 1
                      L=2, number of zeta = 1
             number of atom for this type = 4
                      start magnetization = FALSE
                      start magnetization = FALSE
                      start magnetization = FALSE
                      start magnetization = FALSE

                        TOTAL ATOM NUMBER = 16

 DIRECT COORDINATES
         atom                   x                   y                   z                 mag                  vx                  vy                  vz
     taud_Li1                0.75                0.75                0.25                   0                   0                   0                   0
     taud_Li2                   0                 0.5                   0                   0                   0                   0                   0
     taud_Li3                0.25                0.75                0.25                   0                   0                   0                   0
     taud_Li4                0.75                0.25                0.75                   0                   0                   0                   0
     taud_Li5                   0                   0                 0.5                   0                   0                   0                   0
     taud_Li6                0.25                0.25                0.75                   0                   0                   0                   0
     taud_Li7                0.25                0.75                0.75                   0                   0                   0                   0
     taud_Li8                 0.5                 0.5                 0.5                   0                   0                   0                   0
     taud_Li9                0.75                0.75                0.75                   0                   0                   0                   0
    taud_Li10                0.25                0.25                0.25                   0                   0                   0                   0
    taud_Li11                 0.5                   0                   0                   0                   0                   0                   0
    taud_Li12                0.75                0.25                0.25                   0                   0                   0                   0
     taud_Mg1                   0                   0                   0                   0                   0                   0                   0
     taud_Mg2                   0                 0.5                 0.5                   0                   0                   0                   0
     taud_Mg3                 0.5                   0                 0.5                   0                   0                   0                   0
     taud_Mg4                 0.5                 0.5                   0                   0                   0                   0                   0


                          Volume (Bohr^3) = 1694.75
                             Volume (A^3) = 251.136

 Lattice vectors: (Cartesian coordinate: in unit of a_0)
                   +1                  +0                  +0
                   +0                  +1                  +0
                   +0                  +0                  +1
 Reciprocal vectors: (Cartesian coordinate: in unit of 2 pi/a_0)
                   +1                  -0                  +0
                   -0                  +1                  -0
                   +0                  -0                  +1




 >>>>>>>>>>>>>>>>>>>>>>>>>>>>>>>>>>>>>>>>>>>>>>>>>>>>>>>>>>>>>>>>>>>>>>
 |                                                                    |
 | Reading pseudopotentials files:                                    |
 | The pseudopotential file is in UPF format. The 'NC' indicates that |
 | the type of pseudopotential is 'norm conserving'. Functional of    |
 | exchange and correlation is decided by 4 given parameters in UPF   |
 | file.  We also read in the 'core correction' if there exists.      |
 | Also we can read the valence electrons number and the maximal      |
 | angular momentum used in this pseudopotential. We also read in the |
 | trail wave function, trail atomic density and local-pseudopotential|
 | on logrithmic grid. The non-local pseudopotential projector is also|
 | read in if there is any.                                           |
 |                                                                    |
 <<<<<<<<<<<<<<<<<<<<<<<<<<<<<<<<<<<<<<<<<<<<<<<<<<<<<<<<<<<<<<<<<<<<<<




                PAO radial cut off (Bohr) = 16

 Read in pseudopotential file is li.gga.psp.1
                     pseudopotential type = 
          exchange-correlation functional = XC_GGA_X_PBE+XC_GGA_C_PBE
                 nonlocal core correction = 0
                        valence electrons = 1
                                     lmax = 0
                           number of zeta = 0
                     number of projectors = 0
                PAO radial cut off (Bohr) = 16

 Read in pseudopotential file is mg.gga.psp
                     pseudopotential type = 
          exchange-correlation functional = XC_GGA_X_PBE+XC_GGA_C_PBE
                 nonlocal core correction = 0
                        valence electrons = 2
                                     lmax = 0
                           number of zeta = 0
                     number of projectors = 0
Notice: symbol 'Li_locpsp' is not an element symbol!!!! set the covalent radius to be 0.
Notice: symbol 'mg_locpsp' is not an element symbol!!!! set the covalent radius to be 0.
     initial pseudo atomic orbital number = 0
                                   NLOCAL = 144




 >>>>>>>>>>>>>>>>>>>>>>>>>>>>>>>>>>>>>>>>>>>>>>>>>>>>>>>>>>>>>>>>>>>>>>
 |                                                                    |
 | Setup plane waves of charge/potential:                             |
 | Use the energy cutoff and the lattice vectors to generate the      |
 | dimensions of FFT grid. The number of FFT grid on each processor   |
 | is 'nrxx'. The number of plane wave basis in reciprocal space is   |
 | different for charege/potential and wave functions. We also set    |
 | the 'sticks' for the parallel of FFT. The number of plane waves    |
 | is 'npw' in each processor.                                        |
 <<<<<<<<<<<<<<<<<<<<<<<<<<<<<<<<<<<<<<<<<<<<<<<<<<<<<<<<<<<<<<<<<<<<<<





 SETUP THE PLANE WAVE BASIS
 energy cutoff for charge/potential (unit:Ry) = 180
          [fft grid for charge/potential] = 54, 54, 54
                      [fft grid division] = 1, 1, 1
      [big fft grid for charge/potential] = 54, 54, 54
                                     nbxx = 157464
                                     nrxx = 157464

 SETUP PLANE WAVES FOR CHARGE/POTENTIAL
                    number of plane waves = 68999
                         number of sticks = 2029

 PARALLEL PW FOR CHARGE/POTENTIAL
     PROC   COLUMNS(POT)             PW
        1           2029          68999
 --------------- sum -------------------
        1           2029          68999
                            number of |g| = 542
                                  max |g| = 648
                                  min |g| = 0

 SETUP THE ELECTRONS NUMBER
            electron number of element Li = 1
      total electron number of element Li = 12
            electron number of element Mg = 2
      total electron number of element Mg = 8
            AUTOSET number of electrons:  = 20
 DONE : SETUP UNITCELL Time : 0.454137 (SEC)





 >>>>>>>>>>>>>>>>>>>>>>>>>>>>>>>>>>>>>>>>>>>>>>>>>>>>>>>>>>>>>>>>>>>>>>
 |                                                                    |
 | Doing symmetry analysis:                                           |
 | We calculate the norm of 3 vectors and the angles between them,    |
 | the type of Bravais lattice is given. We can judge if the unticell |
 | is a primitive cell. Finally we give the point group operation for |
 | this unitcell. We we use the point group operations to do symmetry |
 | analysis on given k-point mesh and the charge density.             |
 |                                                                    |
 <<<<<<<<<<<<<<<<<<<<<<<<<<<<<<<<<<<<<<<<<<<<<<<<<<<<<<<<<<<<<<<<<<<<<<




 LATTICE VECTORS: (CARTESIAN COORDINATE: IN UNIT OF A0)
                   +1                  +0                  +0
                   +0                  +1                  +0
                   +0                  +0                  +1
                       right hand lattice = 1
                                   NORM_A = 1
                                   NORM_B = 1
                                   NORM_C = 1
                           ALPHA (DEGREE) = 90
                           BETA  (DEGREE) = 90
                           GAMMA (DEGREE) = 90
                             BRAVAIS TYPE = 1
                     BRAVAIS LATTICE NAME = 01. Cubic P (simple)
                                    IBRAV = 1
                                  BRAVAIS = SIMPLE CUBIC
                       LATTICE CONSTANT A = 1
                                    ibrav = 1
                        ROTATION MATRICES = 48
              PURE POINT GROUP OPERATIONS = 48
                   SPACE GROUP OPERATIONS = 48
                              POINT GROUP = O_h
Warning : If the optimal symmetric configuration is not the input configuration, 
you have to manually change configurations, ABACUS would only calculate the input structure.
 DONE : SYMMETRY Time : 0.48976 (SEC)





 >>>>>>>>>>>>>>>>>>>>>>>>>>>>>>>>>>>>>>>>>>>>>>>>>>>>>>>>>>>>>>>>>>>>>>
 |                                                                    |
 | Setup K-points                                                     |
 | We setup the k-points according to input parameters.               |
 | The reduced k-points are set according to symmetry operations.     |
 | We treat the spin as another set of k-points.                      |
 |                                                                    |
 <<<<<<<<<<<<<<<<<<<<<<<<<<<<<<<<<<<<<<<<<<<<<<<<<<<<<<<<<<<<<<<<<<<<<<





 SETUP K-POINTS
                                    nspin = 1
                   Input type of k points = Monkhorst-Pack(Gamma)
                                   nkstot = 1728
                               nkstot_ibz = 84
      IBZ             DirectX             DirectY             DirectZ              Weight    ibz2bz
        1                   0                   0                   0         0.000578704         0
        2            0.916667                   0                   0          0.00347222         1
        3            0.833333                   0                   0          0.00347222         2
        4                0.75                   0                   0          0.00347222         3
        5            0.666667                   0                   0          0.00347222         4
        6            0.583333                   0                   0          0.00347222         5
        7                   0                   0                 0.5          0.00173611         6
        8            0.916667            0.916667                   0          0.00694444        13
        9            0.916667            0.833333                   0           0.0138889        14
       10            0.916667                0.75                   0           0.0138889        15
       11            0.916667            0.666667                   0           0.0138889        16
       12            0.916667            0.583333                   0           0.0138889        17
       13            0.916667                 0.5                   0          0.00694444        18
       14            0.833333            0.833333                   0          0.00694444        26
       15            0.833333                0.75                   0           0.0138889        27
       16            0.833333            0.666667                   0           0.0138889        28
       17            0.833333            0.583333                   0           0.0138889        29
       18            0.833333                 0.5                   0          0.00694444        30
       19                0.75                0.75                   0          0.00694444        39
       20                0.75            0.666667                   0           0.0138889        40
       21                0.75            0.583333                   0           0.0138889        41
       22                0.75                 0.5                   0          0.00694444        42
       23            0.666667            0.666667                   0          0.00694444        52
       24            0.666667            0.583333                   0           0.0138889        53
       25            0.666667                 0.5                   0          0.00694444        54
       26            0.583333            0.583333                   0          0.00694444        65
       27            0.583333                 0.5                   0          0.00694444        66
       28                   0                 0.5                 0.5          0.00173611        78
       29            0.916667            0.916667            0.916667          0.00462963       157
       30            0.916667            0.916667            0.833333           0.0138889       158
       31            0.916667            0.916667                0.75           0.0138889       159
       32            0.916667            0.916667            0.666667           0.0138889       160
       33            0.916667            0.916667            0.583333           0.0138889       161
       34            0.916667            0.916667                 0.5          0.00694444       162
       35            0.916667            0.833333            0.833333           0.0138889       170
       36            0.916667            0.833333                0.75           0.0277778       171
       37            0.916667            0.833333            0.666667           0.0277778       172
       38            0.916667            0.833333            0.583333           0.0277778       173
       39            0.916667            0.833333                 0.5           0.0138889       174
       40            0.916667                0.75                0.75           0.0138889       183
       41            0.916667                0.75            0.666667           0.0277778       184
       42            0.916667                0.75            0.583333           0.0277778       185
       43            0.916667                0.75                 0.5           0.0138889       186
       44            0.916667            0.666667            0.666667           0.0138889       196
       45            0.916667            0.666667            0.583333           0.0277778       197
       46            0.916667            0.666667                 0.5           0.0138889       198
       47            0.916667            0.583333            0.583333           0.0138889       209
       48            0.916667            0.583333                 0.5           0.0138889       210
       49            0.916667                 0.5                 0.5          0.00347222       222
       50            0.833333            0.833333            0.833333          0.00462963       314
       51            0.833333                0.75            0.833333           0.0138889       315
       52            0.833333            0.833333            0.666667           0.0138889       316
       53            0.833333            0.833333            0.583333           0.0138889       317
       54            0.833333            0.833333                 0.5          0.00694444       318
       55            0.833333                0.75                0.75           0.0138889       327
       56            0.833333                0.75            0.666667           0.0277778       328
       57            0.833333                0.75            0.583333           0.0277778       329
       58            0.833333                0.75                 0.5           0.0138889       330
       59            0.666667            0.666667            0.833333           0.0138889       340
       60            0.666667            0.583333            0.833333           0.0277778       341
       61            0.833333            0.666667                 0.5           0.0138889       342
       62            0.833333            0.583333            0.583333           0.0138889       353
       63            0.833333            0.583333                 0.5           0.0138889       354
       64            0.833333                 0.5                 0.5          0.00347222       366
       65                0.75                0.75                0.75          0.00462963       471
       66                0.75                0.75            0.666667           0.0138889       472
       67                0.75                0.75            0.583333           0.0138889       473
       68                0.75                0.75                 0.5          0.00694444       474
       69                0.75            0.666667            0.666667           0.0138889       484
       70                0.75            0.666667            0.583333           0.0277778       485
       71                0.75            0.666667                 0.5           0.0138889       486
       72                0.75            0.583333            0.583333           0.0138889       497
       73                0.75            0.583333                 0.5           0.0138889       498
       74                0.75                 0.5                 0.5          0.00347222       510
       75            0.666667            0.666667            0.666667          0.00462963       628
       76            0.666667            0.666667            0.583333           0.0138889       629
       77            0.666667            0.666667                 0.5          0.00694444       630
       78            0.666667            0.583333            0.583333           0.0138889       641
       79            0.666667            0.583333                 0.5           0.0138889       642
       80            0.666667                 0.5                 0.5          0.00347222       654
       81            0.583333            0.583333            0.583333          0.00462963       785
       82            0.583333                 0.5            0.583333          0.00694444       786
       83            0.583333                 0.5                 0.5          0.00347222       798
       84                 0.5                 0.5                 0.5         0.000578704       942
                               nkstot now = 84

  KPOINTS            DIRECT_X            DIRECT_Y            DIRECT_Z              WEIGHT
        1                   0                   0                   0         0.000578704
        2            0.916667                   0                   0          0.00347222
        3            0.833333                   0                   0          0.00347222
        4                0.75                   0                   0          0.00347222
        5            0.666667                   0                   0          0.00347222
        6            0.583333                   0                   0          0.00347222
        7                   0                   0                 0.5          0.00173611
        8            0.916667            0.916667                   0          0.00694444
        9            0.916667            0.833333                   0           0.0138889
       10            0.916667                0.75                   0           0.0138889
       11            0.916667            0.666667                   0           0.0138889
       12            0.916667            0.583333                   0           0.0138889
       13            0.916667                 0.5                   0          0.00694444
       14            0.833333            0.833333                   0          0.00694444
       15            0.833333                0.75                   0           0.0138889
       16            0.833333            0.666667                   0           0.0138889
       17            0.833333            0.583333                   0           0.0138889
       18            0.833333                 0.5                   0          0.00694444
       19                0.75                0.75                   0          0.00694444
       20                0.75            0.666667                   0           0.0138889
       21                0.75            0.583333                   0           0.0138889
       22                0.75                 0.5                   0          0.00694444
       23            0.666667            0.666667                   0          0.00694444
       24            0.666667            0.583333                   0           0.0138889
       25            0.666667                 0.5                   0          0.00694444
       26            0.583333            0.583333                   0          0.00694444
       27            0.583333                 0.5                   0          0.00694444
       28                   0                 0.5                 0.5          0.00173611
       29            0.916667            0.916667            0.916667          0.00462963
       30            0.916667            0.916667            0.833333           0.0138889
       31            0.916667            0.916667                0.75           0.0138889
       32            0.916667            0.916667            0.666667           0.0138889
       33            0.916667            0.916667            0.583333           0.0138889
       34            0.916667            0.916667                 0.5          0.00694444
       35            0.916667            0.833333            0.833333           0.0138889
       36            0.916667            0.833333                0.75           0.0277778
       37            0.916667            0.833333            0.666667           0.0277778
       38            0.916667            0.833333            0.583333           0.0277778
       39            0.916667            0.833333                 0.5           0.0138889
       40            0.916667                0.75                0.75           0.0138889
       41            0.916667                0.75            0.666667           0.0277778
       42            0.916667                0.75            0.583333           0.0277778
       43            0.916667                0.75                 0.5           0.0138889
       44            0.916667            0.666667            0.666667           0.0138889
       45            0.916667            0.666667            0.583333           0.0277778
       46            0.916667            0.666667                 0.5           0.0138889
       47            0.916667            0.583333            0.583333           0.0138889
       48            0.916667            0.583333                 0.5           0.0138889
       49            0.916667                 0.5                 0.5          0.00347222
       50            0.833333            0.833333            0.833333          0.00462963
       51            0.833333                0.75            0.833333           0.0138889
       52            0.833333            0.833333            0.666667           0.0138889
       53            0.833333            0.833333            0.583333           0.0138889
       54            0.833333            0.833333                 0.5          0.00694444
       55            0.833333                0.75                0.75           0.0138889
       56            0.833333                0.75            0.666667           0.0277778
       57            0.833333                0.75            0.583333           0.0277778
       58            0.833333                0.75                 0.5           0.0138889
       59            0.666667            0.666667            0.833333           0.0138889
       60            0.666667            0.583333            0.833333           0.0277778
       61            0.833333            0.666667                 0.5           0.0138889
       62            0.833333            0.583333            0.583333           0.0138889
       63            0.833333            0.583333                 0.5           0.0138889
       64            0.833333                 0.5                 0.5          0.00347222
       65                0.75                0.75                0.75          0.00462963
       66                0.75                0.75            0.666667           0.0138889
       67                0.75                0.75            0.583333           0.0138889
       68                0.75                0.75                 0.5          0.00694444
       69                0.75            0.666667            0.666667           0.0138889
       70                0.75            0.666667            0.583333           0.0277778
       71                0.75            0.666667                 0.5           0.0138889
       72                0.75            0.583333            0.583333           0.0138889
       73                0.75            0.583333                 0.5           0.0138889
       74                0.75                 0.5                 0.5          0.00347222
       75            0.666667            0.666667            0.666667          0.00462963
       76            0.666667            0.666667            0.583333           0.0138889
       77            0.666667            0.666667                 0.5          0.00694444
       78            0.666667            0.583333            0.583333           0.0138889
       79            0.666667            0.583333                 0.5           0.0138889
       80            0.666667                 0.5                 0.5          0.00347222
       81            0.583333            0.583333            0.583333          0.00462963
       82            0.583333                 0.5            0.583333          0.00694444
       83            0.583333                 0.5                 0.5          0.00347222
       84                 0.5                 0.5                 0.5         0.000578704

           k-point number in this process = 84
       minimum distributed K point number = 84

  KPOINTS         CARTESIAN_X         CARTESIAN_Y         CARTESIAN_Z              WEIGHT
        1                   0                   0                   0          0.00115741
        2            0.916667                   0                   0          0.00694444
        3            0.833333                   0                   0          0.00694444
        4                0.75                   0                   0          0.00694444
        5            0.666667                   0                   0          0.00694444
        6            0.583333                   0                   0          0.00694444
        7                   0                   0                 0.5          0.00347222
        8            0.916667            0.916667                   0           0.0138889
        9            0.916667            0.833333                   0           0.0277778
       10            0.916667                0.75                   0           0.0277778
       11            0.916667            0.666667                   0           0.0277778
       12            0.916667            0.583333                   0           0.0277778
       13            0.916667                 0.5                   0           0.0138889
       14            0.833333            0.833333                   0           0.0138889
       15            0.833333                0.75                   0           0.0277778
       16            0.833333            0.666667                   0           0.0277778
       17            0.833333            0.583333                   0           0.0277778
       18            0.833333                 0.5                   0           0.0138889
       19                0.75                0.75                   0           0.0138889
       20                0.75            0.666667                   0           0.0277778
       21                0.75            0.583333                   0           0.0277778
       22                0.75                 0.5                   0           0.0138889
       23            0.666667            0.666667                   0           0.0138889
       24            0.666667            0.583333                   0           0.0277778
       25            0.666667                 0.5                   0           0.0138889
       26            0.583333            0.583333                   0           0.0138889
       27            0.583333                 0.5                   0           0.0138889
       28                   0                 0.5                 0.5          0.00347222
       29            0.916667            0.916667            0.916667          0.00925926
       30            0.916667            0.916667            0.833333           0.0277778
       31            0.916667            0.916667                0.75           0.0277778
       32            0.916667            0.916667            0.666667           0.0277778
       33            0.916667            0.916667            0.583333           0.0277778
       34            0.916667            0.916667                 0.5           0.0138889
       35            0.916667            0.833333            0.833333           0.0277778
       36            0.916667            0.833333                0.75           0.0555556
       37            0.916667            0.833333            0.666667           0.0555556
       38            0.916667            0.833333            0.583333           0.0555556
       39            0.916667            0.833333                 0.5           0.0277778
       40            0.916667                0.75                0.75           0.0277778
       41            0.916667                0.75            0.666667           0.0555556
       42            0.916667                0.75            0.583333           0.0555556
       43            0.916667                0.75                 0.5           0.0277778
       44            0.916667            0.666667            0.666667           0.0277778
       45            0.916667            0.666667            0.583333           0.0555556
       46            0.916667            0.666667                 0.5           0.0277778
       47            0.916667            0.583333            0.583333           0.0277778
       48            0.916667            0.583333                 0.5           0.0277778
       49            0.916667                 0.5                 0.5          0.00694444
       50            0.833333            0.833333            0.833333          0.00925926
       51            0.833333                0.75            0.833333           0.0277778
       52            0.833333            0.833333            0.666667           0.0277778
       53            0.833333            0.833333            0.583333           0.0277778
       54            0.833333            0.833333                 0.5           0.0138889
       55            0.833333                0.75                0.75           0.0277778
       56            0.833333                0.75            0.666667           0.0555556
       57            0.833333                0.75            0.583333           0.0555556
       58            0.833333                0.75                 0.5           0.0277778
       59            0.666667            0.666667            0.833333           0.0277778
       60            0.666667            0.583333            0.833333           0.0555556
       61            0.833333            0.666667                 0.5           0.0277778
       62            0.833333            0.583333            0.583333           0.0277778
       63            0.833333            0.583333                 0.5           0.0277778
       64            0.833333                 0.5                 0.5          0.00694444
       65                0.75                0.75                0.75          0.00925926
       66                0.75                0.75            0.666667           0.0277778
       67                0.75                0.75            0.583333           0.0277778
       68                0.75                0.75                 0.5           0.0138889
       69                0.75            0.666667            0.666667           0.0277778
       70                0.75            0.666667            0.583333           0.0555556
       71                0.75            0.666667                 0.5           0.0277778
       72                0.75            0.583333            0.583333           0.0277778
       73                0.75            0.583333                 0.5           0.0277778
       74                0.75                 0.5                 0.5          0.00694444
       75            0.666667            0.666667            0.666667          0.00925926
       76            0.666667            0.666667            0.583333           0.0277778
       77            0.666667            0.666667                 0.5           0.0138889
       78            0.666667            0.583333            0.583333           0.0277778
       79            0.666667            0.583333                 0.5           0.0277778
       80            0.666667                 0.5                 0.5          0.00694444
       81            0.583333            0.583333            0.583333          0.00925926
       82            0.583333                 0.5            0.583333           0.0138889
       83            0.583333                 0.5                 0.5          0.00694444
       84                 0.5                 0.5                 0.5          0.00115741

  KPOINTS            DIRECT_X            DIRECT_Y            DIRECT_Z              WEIGHT
        1                   0                   0                   0          0.00115741
        2            0.916667                   0                   0          0.00694444
        3            0.833333                   0                   0          0.00694444
        4                0.75                   0                   0          0.00694444
        5            0.666667                   0                   0          0.00694444
        6            0.583333                   0                   0          0.00694444
        7                   0                   0                 0.5          0.00347222
        8            0.916667            0.916667                   0           0.0138889
        9            0.916667            0.833333                   0           0.0277778
       10            0.916667                0.75                   0           0.0277778
       11            0.916667            0.666667                   0           0.0277778
       12            0.916667            0.583333                   0           0.0277778
       13            0.916667                 0.5                   0           0.0138889
       14            0.833333            0.833333                   0           0.0138889
       15            0.833333                0.75                   0           0.0277778
       16            0.833333            0.666667                   0           0.0277778
       17            0.833333            0.583333                   0           0.0277778
       18            0.833333                 0.5                   0           0.0138889
       19                0.75                0.75                   0           0.0138889
       20                0.75            0.666667                   0           0.0277778
       21                0.75            0.583333                   0           0.0277778
       22                0.75                 0.5                   0           0.0138889
       23            0.666667            0.666667                   0           0.0138889
       24            0.666667            0.583333                   0           0.0277778
       25            0.666667                 0.5                   0           0.0138889
       26            0.583333            0.583333                   0           0.0138889
       27            0.583333                 0.5                   0           0.0138889
       28                   0                 0.5                 0.5          0.00347222
       29            0.916667            0.916667            0.916667          0.00925926
       30            0.916667            0.916667            0.833333           0.0277778
       31            0.916667            0.916667                0.75           0.0277778
       32            0.916667            0.916667            0.666667           0.0277778
       33            0.916667            0.916667            0.583333           0.0277778
       34            0.916667            0.916667                 0.5           0.0138889
       35            0.916667            0.833333            0.833333           0.0277778
       36            0.916667            0.833333                0.75           0.0555556
       37            0.916667            0.833333            0.666667           0.0555556
       38            0.916667            0.833333            0.583333           0.0555556
       39            0.916667            0.833333                 0.5           0.0277778
       40            0.916667                0.75                0.75           0.0277778
       41            0.916667                0.75            0.666667           0.0555556
       42            0.916667                0.75            0.583333           0.0555556
       43            0.916667                0.75                 0.5           0.0277778
       44            0.916667            0.666667            0.666667           0.0277778
       45            0.916667            0.666667            0.583333           0.0555556
       46            0.916667            0.666667                 0.5           0.0277778
       47            0.916667            0.583333            0.583333           0.0277778
       48            0.916667            0.583333                 0.5           0.0277778
       49            0.916667                 0.5                 0.5          0.00694444
       50            0.833333            0.833333            0.833333          0.00925926
       51            0.833333                0.75            0.833333           0.0277778
       52            0.833333            0.833333            0.666667           0.0277778
       53            0.833333            0.833333            0.583333           0.0277778
       54            0.833333            0.833333                 0.5           0.0138889
       55            0.833333                0.75                0.75           0.0277778
       56            0.833333                0.75            0.666667           0.0555556
       57            0.833333                0.75            0.583333           0.0555556
       58            0.833333                0.75                 0.5           0.0277778
       59            0.666667            0.666667            0.833333           0.0277778
       60            0.666667            0.583333            0.833333           0.0555556
       61            0.833333            0.666667                 0.5           0.0277778
       62            0.833333            0.583333            0.583333           0.0277778
       63            0.833333            0.583333                 0.5           0.0277778
       64            0.833333                 0.5                 0.5          0.00694444
       65                0.75                0.75                0.75          0.00925926
       66                0.75                0.75            0.666667           0.0277778
       67                0.75                0.75            0.583333           0.0277778
       68                0.75                0.75                 0.5           0.0138889
       69                0.75            0.666667            0.666667           0.0277778
       70                0.75            0.666667            0.583333           0.0555556
       71                0.75            0.666667                 0.5           0.0277778
       72                0.75            0.583333            0.583333           0.0277778
       73                0.75            0.583333                 0.5           0.0277778
       74                0.75                 0.5                 0.5          0.00694444
       75            0.666667            0.666667            0.666667          0.00925926
       76            0.666667            0.666667            0.583333           0.0277778
       77            0.666667            0.666667                 0.5           0.0138889
       78            0.666667            0.583333            0.583333           0.0277778
       79            0.666667            0.583333                 0.5           0.0277778
       80            0.666667                 0.5                 0.5          0.00694444
       81            0.583333            0.583333            0.583333          0.00925926
       82            0.583333                 0.5            0.583333           0.0138889
       83            0.583333                 0.5                 0.5          0.00694444
       84                 0.5                 0.5                 0.5          0.00115741
 DONE : INIT K-POINTS Time : 0.506937 (SEC)





 >>>>>>>>>>>>>>>>>>>>>>>>>>>>>>>>>>>>>>>>>>>>>>>>>>>>>>>>>>>>>>>>>>>>>>
 |                                                                    |
 | Setup plane waves of wave functions:                               |
 | Use the energy cutoff and the lattice vectors to generate the      |
 | dimensions of FFT grid. The number of FFT grid on each processor   |
 | is 'nrxx'. The number of plane wave basis in reciprocal space is   |
 | different for charege/potential and wave functions. We also set    |
 | the 'sticks' for the parallel of FFT. The number of plane wave of  |
 | each k-point is 'npwk[ik]' in each processor                       |
 <<<<<<<<<<<<<<<<<<<<<<<<<<<<<<<<<<<<<<<<<<<<<<<<<<<<<<<<<<<<<<<<<<<<<<





 SETUP PLANE WAVES FOR WAVE FUNCTIONS
     energy cutoff for wavefunc (unit:Ry) = 45
            [fft grid for wave functions] = 54, 54, 54
                    number of plane waves = 12197
                         number of sticks = 641

 PARALLEL PW FOR WAVE FUNCTIONS
     PROC   COLUMNS(POT)             PW
        1            641          12197
 --------------- sum -------------------
        1            641          12197
 DONE : INIT PLANEWAVE Time : 0.64028 (SEC)

                           occupied bands = 10
                                   NBANDS = 28
                                     npwx = 8709

 SETUP NONLOCAL PSEUDOPOTENTIALS IN PLANE WAVE BASIS
 Li non-local projectors:
 Mg non-local projectors:
      TOTAL NUMBER OF NONLOCAL PROJECTORS = 0

 nhm = 0, not allocate some matrix. DONE : LOCAL POTENTIAL Time : 1.23045 (SEC)


 Init Non-Local PseudoPotential table : 
 Init Non-Local-Pseudopotential done.
 DONE : NON-LOCAL POTENTIAL Time : 1.23052 (SEC)


 Make real space PAO into reciprocal space.
       max mesh points in Pseudopotential = 1601
     dq(describe PAO in reciprocal space) = 0.01
                                    max q = 810

 number of pseudo atomic orbitals for Li is 0

 number of pseudo atomic orbitals for Mg is 0
 DONE : INIT BASIS Time : 1.23059 (SEC)

Successful completion of Potential's registration : local
Successful completion of Potential's registration : hartree
Successful completion of Potential's registration : xc
                                 init_chg = atomic
 DONE : INIT SCF Time : 1.56971 (SEC)


 PW ALGORITHM --------------- ION=   1  ELEC=   1--------------------------------
Average iterative diagonalization steps: 8.52338 ; where current threshold is: 0.01 . 

 Density error is 0.379545836737
                          Error Threshold = 0.01

       Energy                       Rydberg                            eV
   E_KohnSham                -13.6103861167                -185.178803167
     E_Harris                -13.0832306986                 -178.00648575
      E_Fermi               +0.229202303771                +3.11845732601

 PW ALGORITHM --------------- ION=   1  ELEC=   2--------------------------------
Average iterative diagonalization steps: 2.56887755102 ; where current threshold is: 0.00189772918369 . 

 Density error is 0.0317645302964
                          Error Threshold = 0.00189772918369

       Energy                       Rydberg                            eV
   E_KohnSham                -13.7827413987                -187.523817083
     E_Harris                -13.6982616267                -186.374410818
      E_Fermi               +0.197075294713                +2.68134694313

 PW ALGORITHM --------------- ION=   1  ELEC=   3--------------------------------
Average iterative diagonalization steps: 3.50977891156 ; where current threshold is: 0.000158822651482 . 

 Density error is 0.000321371170277
                          Error Threshold = 0.000158822651482

       Energy                       Rydberg                            eV
   E_KohnSham                -13.7866787627                -187.577387668
     E_Harris                -13.7867584717                -187.578472165
      E_Fermi               +0.195316726376                +2.65742039342

 PW ALGORITHM --------------- ION=   1  ELEC=   4--------------------------------
Average iterative diagonalization steps: 4.97959183673 ; where current threshold is: 1.60685585139e-06 . 

 Density error is 0.000318827940192
                          Error Threshold = 1.60685585139e-06

       Energy                       Rydberg                            eV
   E_KohnSham                -13.7868770712                -187.580085794
     E_Harris                -13.7870389498                -187.582288265
      E_Fermi               +0.194945386481                +2.65236805496

 PW ALGORITHM --------------- ION=   1  ELEC=   5--------------------------------
Average iterative diagonalization steps: 2.68452380952 ; where current threshold is: 1.59413970096e-06 . 

 Density error is 6.05367726101e-05
                          Error Threshold = 1.59413970096e-06

       Energy                       Rydberg                            eV
   E_KohnSham                 -13.786962295                -187.581245323
     E_Harris                -13.7869848385                -187.581552043
      E_Fermi               +0.194949716285                +2.65242696496

 PW ALGORITHM --------------- ION=   1  ELEC=   6--------------------------------
Average iterative diagonalization steps: 2.42644557823 ; where current threshold is: 3.02683863051e-07 . 

 Density error is 3.39562894332e-07
                          Error Threshold = 3.02683863051e-07

       Energy                       Rydberg                            eV
   E_KohnSham                -13.7869723723                -187.581382432
     E_Harris                -13.7869724743                 -187.58138382
      E_Fermi               +0.194959265207                +2.65255688471

 PW ALGORITHM --------------- ION=   1  ELEC=   7--------------------------------
Average iterative diagonalization steps: 4.89880952381 ; where current threshold is: 1.69781447166e-09 . 

 Density error is 3.10367700986e-08
                          Error Threshold = 1.69781447166e-09

       Energy                       Rydberg                            eV
   E_KohnSham                -13.7869726084                -187.581385645
     E_Harris                -13.7869726155                -187.581385741
      E_Fermi               +0.194957505552                +2.65253294337

 PW ALGORITHM --------------- ION=   1  ELEC=   8--------------------------------
Average iterative diagonalization steps: 2.88010204082 ; where current threshold is: 1.55183850493e-10 . 

 Density error is 6.57635507941e-10
                          Error Threshold = 1.55183850493e-10

       Energy                       Rydberg                            eV
   E_KohnSham                 -13.786972613                -187.581385707
     E_Harris                -13.7869726129                -187.581385705
       E_band              +0.0320666504584               +0.436289162008
   E_one_elec                +10.6603285478                +145.041210803
    E_Hartree               +0.155007175993                +2.10898082439
         E_xc                -8.41088604456                -114.435975435
      E_Ewald                -16.1897306547                 -220.27258599
      E_demet             -0.00169163756161              -0.0230159097887
      E_descf                            +0                            +0
        E_exx                            +0                            +0
      E_Fermi               +0.194955557489                +2.65250643862

 charge density convergence is achieved
 final etot is -187.581385707 eV

 STATE ENERGY(eV) AND OCCUPATIONS    NSPIN == 1
 1/84 kpoint (Cartesian) = 0 0 0 (8709 pws)
       1       -3.94833     0.00115741
       2      -0.485607     0.00115741
       3      -0.485607     0.00115741
       4      -0.485586     0.00115741
       5     -0.0484431     0.00115741
       6     -0.0484431     0.00115741
       7     -0.0484431     0.00115741
       8        2.92481    7.57087e-08
       9        2.92481    7.57087e-08
      10        2.92481    7.57087e-08
      11        2.92482    7.56625e-08
      12        2.92482    7.56625e-08
      13        2.92482    7.56625e-08
      14        4.08544        0.00000
      15        4.08544        0.00000
      16        4.08544        0.00000
      17        4.61267        0.00000
      18        4.61267        0.00000
      19        4.61267        0.00000
      20        6.22176        0.00000
      21        6.22176        0.00000
      22        6.22176        0.00000
      23        7.09965        0.00000
      24        7.09965        0.00000
      25        7.09965        0.00000
      26        9.21460        0.00000
      27        10.0620        0.00000
      28        10.4441        0.00000

 2/84 kpoint (Cartesian) = 0.916667 0.00000 0.00000 (8633 pws)
       1       -3.92264     0.00694444
       2      -0.886775     0.00694444
       3      -0.464445     0.00694444
       4      -0.464431     0.00694444
       5     -0.0230349     0.00694444
       6     -0.0230349     0.00694444
       7       0.399017     0.00694444
       8        2.69383     0.00195005
       9        2.69384     0.00194976
      10        2.74481    0.000676449
      11        2.74481    0.000676449
      12        2.95062    9.79963e-08
      13        2.95062    9.79963e-08
      14        4.11381        0.00000
      15        4.37091        0.00000
      16        4.37092        0.00000
      17        4.63684        0.00000
      18        4.84404        0.00000
      19        4.84404        0.00000
      20        5.93087        0.00000
      21        5.93087        0.00000
      22        6.11287        0.00000
      23        6.99792        0.00000
      24        7.43765        0.00000
      25        7.43765        0.00000
      26        9.34157        0.00000
      27        9.64958        0.00000
      28        10.2152        0.00000

 3/84 kpoint (Cartesian) = 0.833333 0.00000 0.00000 (8625 pws)
       1       -3.84557     0.00694444
       2       -1.40155     0.00694444
       3      -0.402301     0.00694444
       4      -0.402286     0.00694444
       5      0.0531200     0.00694444
       6      0.0531200     0.00694444
       7        1.05144     0.00694444
       8        2.27463     0.00694444
       9        2.27463     0.00694444
      10        2.36487     0.00694426
      11        2.36487     0.00694426
      12        3.02798    4.63453e-10
      13        3.02798    4.63453e-10
      14        4.19987        0.00000
      15        4.70916        0.00000
      16        4.95458        0.00000
      17        4.95459        0.00000
      18        5.37794        0.00000
      19        5.37794        0.00000
      20        5.45562        0.00000
      21        5.45562        0.00000
      22        5.83398        0.00000
      23        6.74237        0.00000
      24        8.05285        0.00000
      25        8.05285        0.00000
      26        8.59890        0.00000
      27        9.79099        0.00000
      28        10.5483        0.00000

 4/84 kpoint (Cartesian) = 0.750000 0.00000 0.00000 (8621 pws)
       1       -3.71717     0.00694444
       2       -1.87945     0.00694444
       3      -0.304100     0.00694444
       4      -0.304084     0.00694444
       5       0.179838     0.00694444
       6       0.179838     0.00694444
       7        1.75414     0.00694444
       8        1.85930     0.00694444
       9        1.85931     0.00694444
      10        1.94664     0.00694444
      11        1.94664     0.00694444
      12        3.15683    4.86494e-15
      13        3.15683    4.86494e-15
      14        4.34701        0.00000
      15        4.82918        0.00000
      16        4.99008        0.00000
      17        4.99008        0.00000
      18        5.46164        0.00000
      19        5.64812        0.00000
      20        5.64812        0.00000
      21        6.05257        0.00000
      22        6.05257        0.00000
      23        6.41716        0.00000
      24        7.62157        0.00000
      25        8.74637        0.00000
      26        8.74637        0.00000
      27        10.3619        0.00000
      28        10.6785        0.00000

 5/84 kpoint (Cartesian) = 0.666667 0.00000 0.00000 (8630 pws)
       1       -3.53753     0.00694444
       2       -2.31072     0.00694444
       3      -0.182139     0.00694444
       4      -0.182121     0.00694444
       5       0.356770     0.00694444
       6       0.356770     0.00694444
       7        1.50107     0.00694444
       8        1.50107     0.00694444
       9        1.54561     0.00694444
      10        1.54561     0.00694444
      11        2.48766     0.00687298
      12        3.33704        0.00000
      13        3.33704        0.00000
      14        4.56323        0.00000
      15        4.56323        0.00000
      16        4.56352        0.00000
      17        4.99596        0.00000
      18        5.03236        0.00000
      19        6.07844        0.00000
      20        6.40742        0.00000
      21        6.40742        0.00000
      22        6.70961        0.00000
      23        6.81211        0.00000
      24        6.81211        0.00000
      25        9.47783        0.00000
      26        9.47783        0.00000
      27        10.0465        0.00000
      28        10.0465        0.00000

 6/84 kpoint (Cartesian) = 0.583333 0.00000 0.00000 (8666 pws)
       1       -3.30679     0.00694444
       2       -2.69296     0.00694444
       3     -0.0659954     0.00694444
       4     -0.0659765     0.00694444
       5       0.583324     0.00694444
       6       0.583324     0.00694444
       7        1.18040     0.00694444
       8        1.18040     0.00694444
       9        1.24070     0.00694444
      10        1.24070     0.00694444
      11        3.22789    2.31296e-18
      12        3.56834        0.00000
      13        3.56834        0.00000
      14        4.18241        0.00000
      15        4.18241        0.00000
      16        4.53391        0.00000
      17        4.86863        0.00000
      18        5.20792        0.00000
      19        5.75528        0.00000
      20        5.91737        0.00000
      21        7.20839        0.00000
      22        7.20840        0.00000
      23        7.63742        0.00000
      24        7.63742        0.00000
      25        9.10569        0.00000
      26        9.10569        0.00000
      27        9.45545        0.00000
      28        9.45545        0.00000

 7/84 kpoint (Cartesian) = 0.00000 0.00000 0.500000 (8642 pws)
       1       -3.02516     0.00347222
       2       -3.02515     0.00347222
       3     -0.0134712     0.00347222
       4     -0.0134511     0.00347222
       5       0.858466     0.00347222
       6       0.858466     0.00347222
       7       0.858479     0.00347222
       8       0.858479     0.00347222
       9        1.13977     0.00347222
      10        1.13977     0.00347222
      11        3.85036        0.00000
      12        3.85036        0.00000
      13        3.85037        0.00000
      14        3.85037        0.00000
      15        3.92936        0.00000
      16        3.92936        0.00000
      17        5.30289        0.00000
      18        5.30290        0.00000
      19        5.46250        0.00000
      20        5.46251        0.00000
      21        7.83294        0.00000
      22        7.83295        0.00000
      23        8.43424        0.00000
      24        8.43425        0.00000
      25        8.52016        0.00000
      26        8.52016        0.00000
      27        8.52016        0.00000
      28        8.52016        0.00000

 8/84 kpoint (Cartesian) = 0.916667 0.916667 0.00000 (8632 pws)
       1       -3.89695      0.0138889
       2      -0.863347      0.0138889
       3      -0.863337      0.0138889
       4      -0.443945      0.0138889
       5     0.00236886      0.0138889
       6       0.421291      0.0138889
       7       0.421295      0.0138889
       8        2.26631      0.0138889
       9        2.72145     0.00231124
      10        2.72145     0.00231121
      11        2.77048    0.000677122
      12        2.77049    0.000676931
      13        2.97610    3.80966e-08
      14        4.33325        0.00000
      15        4.39821        0.00000
      16        4.39821        0.00000
      17        4.86829        0.00000
      18        4.86829        0.00000
      19        5.18439        0.00000
      20        5.57861        0.00000
      21        5.68475        0.00000
      22        6.25455        0.00000
      23        7.15191        0.00000
      24        7.47200        0.00000
      25        7.56880        0.00000
      26        9.47856        0.00000
      27        9.49425        0.00000
      28        9.93349        0.00000

 9/84 kpoint (Cartesian) = 0.916667 0.833333 0.00000 (8622 pws)
       1       -3.81989      0.0277778
       2       -1.37719      0.0277778
       3      -0.793645      0.0277778
       4      -0.384314      0.0277778
       5      0.0785213      0.0277778
       6       0.486573      0.0277778
       7        1.06946      0.0277778
       8        1.79819      0.0277778
       9        2.30644      0.0277778
      10        2.39041      0.0277746
      11        2.80539    0.000441069
      12        2.82427    0.000219921
      13        2.84748    8.56919e-05
      14        4.48068        0.00000
      15        4.66413        0.00000
      16        4.94090        0.00000
      17        4.98067        0.00000
      18        5.10981        0.00000
      19        5.24059        0.00000
      20        5.40225        0.00000
      21        5.79430        0.00000
      22        6.12314        0.00000
      23        6.97825        0.00000
      24        7.96915        0.00000
      25        7.99326        0.00000
      26        8.61193        0.00000
      27        9.78003        0.00000
      28        10.0546        0.00000

 10/84 kpoint (Cartesian) = 0.916667 0.750000 0.00000 (8635 pws)
       1       -3.69152      0.0277778
       2       -1.85461      0.0277778
       3      -0.679898      0.0277778
       4      -0.292774      0.0277778
       5       0.205238      0.0277778
       6       0.588223      0.0277778
       7        1.36884      0.0277778
       8        1.76203      0.0277778
       9        1.90095      0.0277778
      10        1.97211      0.0277778
      11        2.47538      0.0275993
      12        2.95065    3.91068e-07
      13        2.97568    7.83666e-08
      14        4.62044        0.00000
      15        4.65301        0.00000
      16        4.78919        0.00000
      17        5.06141        0.00000
      18        5.27850        0.00000
      19        5.67319        0.00000
      20        5.78848        0.00000
      21        6.07680        0.00000
      22        6.49926        0.00000
      23        6.65764        0.00000
      24        7.65810        0.00000
      25        8.59497        0.00000
      26        8.64247        0.00000
      27        9.98247        0.00000
      28        10.5999        0.00000

 11/84 kpoint (Cartesian) = 0.916667 0.666667 0.00000 (8653 pws)
       1       -3.51193      0.0277778
       2       -2.28559      0.0277778
       3      -0.527600      0.0277778
       4      -0.189582      0.0277778
       5       0.382173      0.0277778
       6       0.703889      0.0277778
       7        1.01103      0.0277778
       8        1.57105      0.0277778
       9        1.57357      0.0277778
      10        2.10742      0.0277778
      11        2.46160      0.0276760
      12        3.15489    2.36971e-14
      13        3.17771    2.24666e-15
      14        4.22809        0.00000
      15        4.36996        0.00000
      16        4.82269        0.00000
      17        5.22891        0.00000
      18        5.35610        0.00000
      19        6.01223        0.00000
      20        6.31745        0.00000
      21        6.43112        0.00000
      22        6.77293        0.00000
      23        6.83612        0.00000
      24        7.26907        0.00000
      25        9.25058        0.00000
      26        9.37324        0.00000
      27        9.62199        0.00000
      28        10.0583        0.00000

 12/84 kpoint (Cartesian) = 0.916667 0.583333 0.00000 (8658 pws)
       1       -3.28125      0.0277778
       2       -2.66764      0.0277778
       3      -0.351082      0.0277778
       4      -0.128907      0.0277778
       5       0.608730      0.0277778
       6       0.763458      0.0277778
       7       0.777642      0.0277778
       8        1.20582      0.0277778
       9        1.41928      0.0277778
      10        1.77631      0.0277778
      11        3.06191    1.23515e-10
      12        3.38476        0.00000
      13        3.57468        0.00000
      14        3.83858        0.00000
      15        3.99375        0.00000
      16        4.82764        0.00000
      17        5.10012        0.00000
      18        5.44189        0.00000
      19        5.99232        0.00000
      20        6.03057        0.00000
      21        6.81317        0.00000
      22        7.22672        0.00000
      23        7.66103        0.00000
      24        8.08293        0.00000
      25        8.67747        0.00000
      26        9.12950        0.00000
      27        9.47708        0.00000
      28        9.85356        0.00000

 13/84 kpoint (Cartesian) = 0.916667 0.500000 0.00000 (8660 pws)
       1       -2.99972      0.0138889
       2       -2.99970      0.0138889
       3      -0.190562      0.0138889
       4      -0.190543      0.0138889
       5       0.728319      0.0138889
       6       0.728328      0.0138889
       7       0.883878      0.0138889
       8       0.883892      0.0138889
       9        1.51945      0.0138889
      10        1.51945      0.0138889
      11        3.47289        0.00000
      12        3.47290        0.00000
      13        3.66471        0.00000
      14        3.66473        0.00000
      15        4.19487        0.00000
      16        4.19487        0.00000
      17        5.48355        0.00000
      18        5.48356        0.00000
      19        5.69781        0.00000
      20        5.69782        0.00000
      21        7.59911        0.00000
      22        7.59912        0.00000
      23        8.23259        0.00000
      24        8.23259        0.00000
      25        8.54306        0.00000
      26        8.54307        0.00000
      27        9.02998        0.00000
      28        9.02998        0.00000

 14/84 kpoint (Cartesian) = 0.833333 0.833333 0.00000 (8616 pws)
       1       -3.74289      0.0138889
       2       -1.30439      0.0138889
       3       -1.30439      0.0138889
       4      -0.334553      0.0138889
       5       0.154675      0.0138889
       6        1.11781      0.0138889
       7        1.11781      0.0138889
       8        1.31804      0.0138889
       9        2.40709      0.0138850
      10        2.40709      0.0138850
      11        2.46697      0.0138253
      12        2.46698      0.0138253
      13        3.12976    1.41185e-13
      14        4.52380        0.00000
      15        4.63415        0.00000
      16        4.82407        0.00000
      17        5.05916        0.00000
      18        5.05916        0.00000
      19        5.47502        0.00000
      20        5.47502        0.00000
      21        6.33072        0.00000
      22        6.43974        0.00000
      23        7.30869        0.00000
      24        7.92679        0.00000
      25        8.00969        0.00000
      26        8.48270        0.00000
      27        9.10501        0.00000
      28        10.4885        0.00000

 15/84 kpoint (Cartesian) = 0.833333 0.750000 0.00000 (8631 pws)
       1       -3.61461      0.0277778
       2       -1.78025      0.0277778
       3       -1.18415      0.0277778
       4      -0.271314      0.0277778
       5       0.281392      0.0277778
       6       0.909653      0.0277778
       7        1.16831      0.0277778
       8        1.76335      0.0277778
       9        2.04734      0.0277778
      10        2.04847      0.0277778
      11        2.59445      0.0220171
      12        2.60384      0.0209133
      13        3.02810    1.83722e-09
      14        4.17648        0.00000
      15        4.38676        0.00000
      16        4.88327        0.00000
      17        5.19083        0.00000
      18        5.59577        0.00000
      19        5.74837        0.00000
      20        6.14929        0.00000
      21        6.18543        0.00000
      22        7.15907        0.00000
      23        7.15927        0.00000
      24        7.75768        0.00000
      25        8.30535        0.00000
      26        8.41320        0.00000
      27        9.12488        0.00000
      28        10.0935        0.00000

 16/84 kpoint (Cartesian) = 0.833333 0.666667 0.00000 (8646 pws)
       1       -3.43515      0.0277778
       2       -2.21030      0.0277778
       3       -1.01877      0.0277778
       4      -0.251011      0.0277778
       5       0.458328      0.0277778
       6       0.635066      0.0277778
       7        1.13100      0.0277778
       8        1.64730      0.0277778
       9        1.85955      0.0277778
      10        2.31253      0.0277778
      11        2.72876     0.00394609
      12        2.77254     0.00127486
      13        2.99222    2.53737e-08
      14        3.75357        0.00000
      15        3.97547        0.00000
      16        5.37767        0.00000
      17        5.54111        0.00000
      18        5.76140        0.00000
      19        5.76355        0.00000
      20        6.50174        0.00000
      21        6.84461        0.00000
      22        6.90790        0.00000
      23        6.97919        0.00000
      24        7.93390        0.00000
      25        8.71248        0.00000
      26        9.09933        0.00000
      27        9.11996        0.00000
      28        9.50533        0.00000

 17/84 kpoint (Cartesian) = 0.833333 0.583333 0.00000 (8658 pws)
       1       -3.20467      0.0277778
       2       -2.59174      0.0277778
       3      -0.813498      0.0277778
       4      -0.364186      0.0277778
       5       0.585064      0.0277778
       6       0.684894      0.0277778
       7       0.944127      0.0277778
       8        1.28202      0.0277778
       9        1.92116      0.0277778
      10        2.41088      0.0277682
      11        2.69224     0.00801089
      12        3.00081    1.38385e-08
      13        3.36947        0.00000
      14        3.60421        0.00000
      15        3.63359        0.00000
      16        5.13392        0.00000
      17        5.62468        0.00000
      18        5.97673        0.00000
      19        6.31871        0.00000
      20        6.37529        0.00000
      21        6.52543        0.00000
      22        7.27439        0.00000
      23        7.73146        0.00000
      24        8.17870        0.00000
      25        8.71327        0.00000
      26        9.07077        0.00000
      27        9.21407        0.00000
      28        9.54037        0.00000

 18/84 kpoint (Cartesian) = 0.833333 0.500000 0.00000 (8674 pws)
       1       -2.92341      0.0138889
       2       -2.92340      0.0138889
       3      -0.581961      0.0138889
       4      -0.581945      0.0138889
       5       0.725205      0.0138889
       6       0.725214      0.0138889
       7       0.960054      0.0138889
       8       0.960067      0.0138889
       9        2.12992      0.0138889
      10        2.12992      0.0138889
      11        3.02140    1.52808e-09
      12        3.02141    1.52704e-09
      13        3.27847        0.00000
      14        3.27849        0.00000
      15        4.38737        0.00000
      16        4.38737        0.00000
      17        5.94525        0.00000
      18        5.94526        0.00000
      19        6.23244        0.00000
      20        6.23245        0.00000
      21        7.14586        0.00000
      22        7.14586        0.00000
      23        8.24733        0.00000
      24        8.24733        0.00000
      25        8.61108        0.00000
      26        8.61109        0.00000
      27        9.41009        0.00000
      28        9.41010        0.00000

 19/84 kpoint (Cartesian) = 0.750000 0.750000 0.00000 (8620 pws)
       1       -3.48648      0.0138889
       2       -1.65691      0.0138889
       3       -1.65690      0.0138889
       4      -0.295087      0.0138889
       5       0.408117      0.0138889
       6       0.585991      0.0138889
       7        1.66458      0.0138889
       8        1.66458      0.0138889
       9        2.17556      0.0138889
      10        2.17556      0.0138889
      11        2.39243      0.0138871
      12        2.39244      0.0138871
      13        3.38515        0.00000
      14        3.71901        0.00000
      15        3.95686        0.00000
      16        4.77872        0.00000
      17        5.87353        0.00000
      18        5.87353        0.00000
      19        6.26947        0.00000
      20        6.26948        0.00000
      21        6.32651        0.00000
      22        7.56995        0.00000
      23        7.76545        0.00000
      24        7.88473        0.00000
      25        8.01413        0.00000
      26        8.33398        0.00000
      27        8.68676        0.00000
      28        9.60677        0.00000

 20/84 kpoint (Cartesian) = 0.750000 0.666667 0.00000 (8638 pws)
       1       -3.30726      0.0277778
       2       -2.08516      0.0277778
       3       -1.48571      0.0277778
       4      -0.457901      0.0277778
       5       0.495429      0.0277778
       6       0.585060      0.0277778
       7        1.40773      0.0277778
       8        1.77421      0.0277778
       9        1.99799      0.0277778
      10        2.35308      0.0277774
      11        2.41772      0.0277643
      12        2.99898    1.57674e-08
      13        3.29808        0.00000
      14        3.33307        0.00000
      15        3.54971        0.00000
      16        5.18404        0.00000
      17        6.01062        0.00000
      18        6.04854        0.00000
      19        6.43618        0.00000
      20        6.61757        0.00000
      21        7.02663        0.00000
      22        7.31345        0.00000
      23        7.46280        0.00000
      24        8.00507        0.00000
      25        8.62190        0.00000
      26        8.66012        0.00000
      27        8.83745        0.00000
      28        9.03204        0.00000

 21/84 kpoint (Cartesian) = 0.750000 0.583333 0.00000 (8639 pws)
       1       -3.07714      0.0277778
       2       -2.46547      0.0277778
       3       -1.26901      0.0277778
       4      -0.728258      0.0277778
       5       0.607257      0.0277778
       6       0.811635      0.0277778
       7        1.10365      0.0277778
       8        1.40884      0.0277778
       9        2.28021      0.0277778
      10        2.58052      0.0234447
      11        2.58120      0.0233810
      12        2.91856    2.58636e-06
      13        3.08280    2.08797e-11
      14        3.18104    1.57898e-15
      15        3.74505        0.00000
      16        5.33886        0.00000
      17        5.88777        0.00000
      18        6.27354        0.00000
      19        6.64727        0.00000
      20        6.88692        0.00000
      21        7.18052        0.00000
      22        7.29921        0.00000
      23        7.79304        0.00000
      24        7.84739        0.00000
      25        8.18532        0.00000
      26        8.78354        0.00000
      27        9.14631        0.00000
      28        9.57001        0.00000

 22/84 kpoint (Cartesian) = 0.750000 0.500000 0.00000 (8654 pws)
       1       -2.79640      0.0138889
       2       -2.79638      0.0138889
       3       -1.01204      0.0138889
       4       -1.01203      0.0138889
       5       0.825555      0.0138889
       6       0.825564      0.0138889
       7        1.08682      0.0138889
       8        1.08684      0.0138889
       9        2.58082      0.0117086
      10        2.58083      0.0117081
      11        2.81394    0.000162182
      12        2.81395    0.000162130
      13        2.85701    2.82790e-05
      14        2.85702    2.82614e-05
      15        4.54451        0.00000
      16        4.54451        0.00000
      17        6.55021        0.00000
      18        6.55022        0.00000
      19        6.70261        0.00000
      20        6.70261        0.00000
      21        6.89853        0.00000
      22        6.89855        0.00000
      23        8.33492        0.00000
      24        8.33492        0.00000
      25        8.45306        0.00000
      26        8.45307        0.00000
      27        8.72152        0.00000
      28        8.72153        0.00000

 23/84 kpoint (Cartesian) = 0.666667 0.666667 0.00000 (8646 pws)
       1       -3.12842      0.0138889
       2       -1.91082      0.0138889
       3       -1.91081      0.0138889
       4      -0.777664      0.0138889
       5       0.563512      0.0138889
       6       0.762016      0.0138889
       7        1.63620      0.0138889
       8        1.63620      0.0138889
       9        1.95145      0.0138889
      10        1.95145      0.0138889
      11        2.87965    9.86182e-06
      12        3.12456    2.32186e-13
      13        3.12457    2.31977e-13
      14        3.14485    3.23584e-14
      15        3.74088        0.00000
      16        5.12473        0.00000
      17        5.96321        0.00000
      18        6.77437        0.00000
      19        6.77437        0.00000
      20        7.19058        0.00000
      21        7.19058        0.00000
      22        7.38025        0.00000
      23        7.61206        0.00000
      24        7.93563        0.00000
      25        8.20138        0.00000
      26        8.20139        0.00000
      27        8.76769        0.00000
      28        8.96165        0.00000

 24/84 kpoint (Cartesian) = 0.666667 0.583333 0.00000 (8640 pws)
[...]
      11        3.78841        0.00000
      12        3.78842        0.00000
      13        4.17216        0.00000
      14        4.17217        0.00000
      15        4.80931        0.00000
      16        4.80932        0.00000
      17        6.05620        0.00000
      18        6.05621        0.00000
      19        6.48097        0.00000
      20        6.48097        0.00000
      21        7.09711        0.00000
      22        7.09711        0.00000
      23        7.53770        0.00000
      24        7.53771        0.00000
      25        8.43199        0.00000
      26        8.43199        0.00000
      27        9.46753        0.00000
      28        9.46754        0.00000

 72/84 kpoint (Cartesian) = 0.750000 0.583333 0.583333 (8632 pws)
       1       -2.44504      0.0277778
       2       -1.84948      0.0277778
       3       -1.84947      0.0277778
       4       -1.31708      0.0277778
       5      -0.429744      0.0277778
       6       0.101018      0.0277778
       7       0.101019      0.0277778
       8       0.694635      0.0277778
       9        3.07575    3.83856e-11
      10        3.59829        0.00000
      11        3.59829        0.00000
      12        4.19343        0.00000
      13        4.29895        0.00000
      14        4.29896        0.00000
      15        4.41210        0.00000
      16        5.43980        0.00000
      17        5.76103        0.00000
      18        6.40588        0.00000
      19        6.40588        0.00000
      20        6.68147        0.00000
      21        6.78398        0.00000
      22        7.05729        0.00000
      23        7.05729        0.00000
      24        7.72037        0.00000
      25        7.82863        0.00000
      26        8.92696        0.00000
      27        8.95702        0.00000
      28        8.95702        0.00000

 73/84 kpoint (Cartesian) = 0.750000 0.583333 0.500000 (8640 pws)
       1       -2.17007      0.0277778
       2       -2.17006      0.0277778
       3       -1.59156      0.0277778
       4       -1.59154      0.0277778
       5      -0.206043      0.0277778
       6      -0.206033      0.0277778
       7       0.370546      0.0277778
       8       0.370557      0.0277778
       9        3.32978        0.00000
      10        3.32980        0.00000
      11        3.88869        0.00000
      12        3.88870        0.00000
      13        4.45247        0.00000
      14        4.45248        0.00000
      15        4.98841        0.00000
      16        4.98841        0.00000
      17        6.23125        0.00000
      18        6.23125        0.00000
      19        6.55259        0.00000
      20        6.55260        0.00000
      21        6.84507        0.00000
      22        6.84508        0.00000
      23        7.18164        0.00000
      24        7.18164        0.00000
      25        8.26972        0.00000
      26        8.26972        0.00000
      27        8.83446        0.00000
      28        8.83447        0.00000

 74/84 kpoint (Cartesian) = 0.750000 0.500000 0.500000 (8596 pws)
       1       -1.90035     0.00694444
       2       -1.90034     0.00694444
       3       -1.90034     0.00694444
       4       -1.90032     0.00694444
       5      0.0517003     0.00694444
       6      0.0517102     0.00694444
       7      0.0517102     0.00694444
       8      0.0517215     0.00694444
       9        3.59824        0.00000
      10        3.59824        0.00000
      11        3.59824        0.00000
      12        3.59826        0.00000
      13        4.93140        0.00000
      14        4.93141        0.00000
      15        4.93142        0.00000
      16        4.93142        0.00000
      17        6.25289        0.00000
      18        6.25289        0.00000
      19        6.25289        0.00000
      20        6.25290        0.00000
      21        7.09320        0.00000
      22        7.09321        0.00000
      23        7.09321        0.00000
      24        7.09322        0.00000
      25        8.32199        0.00000
      26        8.32199        0.00000
      27        8.32199        0.00000
      28        8.32200        0.00000

 75/84 kpoint (Cartesian) = 0.666667 0.666667 0.666667 (8634 pws)
       1       -2.72274     0.00925926
       2       -1.54023     0.00925926
       3       -1.54023     0.00925926
       4       -1.54021     0.00925926
       5      -0.157755     0.00925926
       6      -0.157754     0.00925926
       7      -0.157754     0.00925926
       8        1.02133     0.00925926
       9        3.38377        0.00000
      10        3.38377        0.00000
      11        3.38378        0.00000
      12        4.14163        0.00000
      13        4.14163        0.00000
      14        4.14163        0.00000
      15        5.26943        0.00000
      16        5.26943        0.00000
      17        5.50810        0.00000
      18        5.50810        0.00000
      19        5.50810        0.00000
      20        6.90156        0.00000
      21        6.90156        0.00000
      22        7.30860        0.00000
      23        8.04658        0.00000
      24        8.04659        0.00000
      25        8.04659        0.00000
      26        8.84674        0.00000
      27        9.07928        0.00000
      28        9.07929        0.00000

 76/84 kpoint (Cartesian) = 0.666667 0.666667 0.583333 (8627 pws)
       1       -2.49595      0.0277778
       2       -1.89985      0.0277778
       3       -1.36616      0.0277778
       4       -1.36615      0.0277778
       5      -0.481586      0.0277778
       6      -0.481582      0.0277778
       7      0.0506298      0.0277778
       8       0.645082      0.0277778
       9        3.57028        0.00000
      10        3.57029        0.00000
      11        4.13785        0.00000
      12        4.15783        0.00000
      13        4.15783        0.00000
      14        4.36396        0.00000
      15        4.93762        0.00000
      16        5.30974        0.00000
      17        5.72234        0.00000
      18        5.93046        0.00000
      19        5.93047        0.00000
      20        6.38754        0.00000
      21        7.08548        0.00000
      22        7.44081        0.00000
      23        7.44081        0.00000
      24        7.49261        0.00000
      25        7.66742        0.00000
      26        8.57552        0.00000
      27        8.85837        0.00000
      28        8.96746        0.00000

 77/84 kpoint (Cartesian) = 0.666667 0.666667 0.500000 (8624 pws)
       1       -2.22076      0.0138889
       2       -2.22075      0.0138889
       3       -1.26723      0.0138889
       4       -1.26721      0.0138889
       5      -0.630540      0.0138889
       6      -0.630533      0.0138889
       7       0.320515      0.0138889
       8       0.320526      0.0138889
       9        3.68075        0.00000
      10        3.68077        0.00000
      11        4.07318        0.00000
      12        4.07319        0.00000
      13        4.63123        0.00000
      14        4.63125        0.00000
      15        4.84347        0.00000
      16        4.84348        0.00000
      17        5.99567        0.00000
      18        5.99567        0.00000
      19        6.49764        0.00000
      20        6.49764        0.00000
      21        6.81189        0.00000
      22        6.81189        0.00000
      23        7.34510        0.00000
      24        7.34511        0.00000
      25        7.99501        0.00000
      26        7.99501        0.00000
      27        8.97997        0.00000
      28        8.97999        0.00000

 78/84 kpoint (Cartesian) = 0.666667 0.583333 0.583333 (8635 pws)
       1       -2.27170      0.0277778
       2       -1.69195      0.0277778
       3       -1.69194      0.0277778
       4       -1.31708      0.0277778
       5      -0.681478      0.0277778
       6      -0.307307      0.0277778
       7      -0.307306      0.0277778
       8       0.270961      0.0277778
       9        3.80318        0.00000
      10        4.19478        0.00000
      11        4.19479        0.00000
      12        4.49348        0.00000
      13        4.49349        0.00000
      14        4.57788        0.00000
      15        4.81761        0.00000
      16        5.40589        0.00000
      17        5.90332        0.00000
      18        6.10708        0.00000
      19        6.10708        0.00000
      20        6.46322        0.00000
      21        6.72796        0.00000
      22        7.08662        0.00000
      23        7.08662        0.00000
      24        7.29839        0.00000
      25        7.45669        0.00000
      26        8.39424        0.00000
      27        8.39425        0.00000
      28        8.44111        0.00000

 79/84 kpoint (Cartesian) = 0.666667 0.583333 0.500000 (8628 pws)
       1       -2.00149      0.0277778
       2       -2.00147      0.0277778
       3       -1.46681      0.0277778
       4       -1.46679      0.0277778
       5      -0.582323      0.0277778
       6      -0.582314      0.0277778
       7     -0.0488219      0.0277778
       8     -0.0488114      0.0277778
       9        4.02927        0.00000
      10        4.02928        0.00000
      11        4.53842        0.00000
      12        4.53843        0.00000
      13        4.62038        0.00000
      14        4.62039        0.00000
      15        5.07630        0.00000
      16        5.07630        0.00000
      17        6.29154        0.00000
      18        6.29155        0.00000
      19        6.32888        0.00000
      20        6.32888        0.00000
      21        6.80163        0.00000
      22        6.80163        0.00000
      23        6.81989        0.00000
      24        6.81990        0.00000
      25        7.81074        0.00000
      26        7.81075        0.00000
      27        8.32873        0.00000
      28        8.32874        0.00000

 80/84 kpoint (Cartesian) = 0.666667 0.500000 0.500000 (8628 pws)
       1       -1.74264     0.00694444
       2       -1.74264     0.00694444
       3       -1.74264     0.00694444
       4       -1.74261     0.00694444
       5      -0.357387     0.00694444
       6      -0.357376     0.00694444
       7      -0.357376     0.00694444
       8      -0.357367     0.00694444
       9        4.29442        0.00000
      10        4.29443        0.00000
      11        4.29443        0.00000
      12        4.29444        0.00000
      13        5.06486        0.00000
      14        5.06487        0.00000
      15        5.06488        0.00000
      16        5.06488        0.00000
      17        6.33941        0.00000
      18        6.33941        0.00000
      19        6.33941        0.00000
      20        6.33942        0.00000
      21        6.70521        0.00000
      22        6.70521        0.00000
      23        6.70521        0.00000
      24        6.70522        0.00000
      25        7.86882        0.00000
      26        7.86882        0.00000
      27        7.86882        0.00000
      28        7.86883        0.00000

 81/84 kpoint (Cartesian) = 0.583333 0.583333 0.583333 (8627 pws)
       1       -2.05224     0.00925926
       2       -1.51693     0.00925926
       3       -1.51693     0.00925926
       4       -1.51690     0.00925926
       5      -0.633244     0.00925926
       6      -0.633238     0.00925926
       7      -0.633238     0.00925926
       8     -0.0989492     0.00925926
       9        4.52322        0.00000
      10        4.52322        0.00000
      11        4.52324        0.00000
      12        4.78371        0.00000
      13        4.78372        0.00000
      14        4.78372        0.00000
      15        5.24779        0.00000
      16        5.24779        0.00000
      17        6.06376        0.00000
      18        6.06376        0.00000
      19        6.06376        0.00000
      20        6.46997        0.00000
      21        6.46997        0.00000
      22        6.93753        0.00000
      23        6.93754        0.00000
      24        6.93754        0.00000
      25        7.29919        0.00000
      26        7.94333        0.00000
      27        7.94333        0.00000
      28        7.94335        0.00000

 82/84 kpoint (Cartesian) = 0.583333 0.500000 0.583333 (8618 pws)
       1       -1.79314      0.0138889
       2       -1.79313      0.0138889
       3       -1.41710      0.0138889
       4       -1.41708      0.0138889
       5      -0.783436      0.0138889
       6      -0.783429      0.0138889
       7      -0.407949      0.0138889
       8      -0.407939      0.0138889
       9        4.63759        0.00000
      10        4.63761        0.00000
      11        4.86975        0.00000
      12        4.86975        0.00000
      13        5.01743        0.00000
      14        5.01745        0.00000
      15        5.12217        0.00000
      16        5.12218        0.00000
      17        6.22331        0.00000
      18        6.22332        0.00000
      19        6.35068        0.00000
      20        6.35069        0.00000
      21        6.56776        0.00000
      22        6.56776        0.00000
      23        6.65091        0.00000
      24        6.65092        0.00000
      25        7.48822        0.00000
      26        7.48822        0.00000
      27        7.82122        0.00000
      28        7.82123        0.00000

 83/84 kpoint (Cartesian) = 0.583333 0.500000 0.500000 (8604 pws)
       1       -1.56733     0.00694444
       2       -1.56733     0.00694444
       3       -1.56733     0.00694444
       4       -1.56730     0.00694444
       5      -0.683910     0.00694444
       6      -0.683898     0.00694444
       7      -0.683898     0.00694444
       8      -0.683893     0.00694444
       9        4.93211        0.00000
      10        4.93212        0.00000
      11        4.93212        0.00000
      12        4.93214        0.00000
      13        5.19641        0.00000
      14        5.19642        0.00000
      15        5.19643        0.00000
      16        5.19643        0.00000
      17        6.36251        0.00000
      18        6.36251        0.00000
      19        6.36251        0.00000
      20        6.36252        0.00000
      21        6.42027        0.00000
      22        6.42027        0.00000
      23        6.42027        0.00000
      24        6.42028        0.00000
      25        7.47841        0.00000
      26        7.47841        0.00000
      27        7.47841        0.00000
      28        7.47842        0.00000

 84/84 kpoint (Cartesian) = 0.500000 0.500000 0.500000 (8552 pws)
       1       -1.46724     0.00115741
       2       -1.46724     0.00115741
       3       -1.46724     0.00115741
       4       -1.46721     0.00115741
       5      -0.834463     0.00115741
       6      -0.834448     0.00115741
       7      -0.834448     0.00115741
       8      -0.834448     0.00115741
       9        5.25838        0.00000
      10        5.25838        0.00000
      11        5.25838        0.00000
      12        5.25838        0.00000
      13        5.25838        0.00000
      14        5.25840        0.00000
      15        5.25840        0.00000
      16        5.25840        0.00000
      17        6.30709        0.00000
      18        6.30709        0.00000
      19        6.30709        0.00000
      20        6.30710        0.00000
      21        6.30710        0.00000
      22        6.30710        0.00000
      23        6.30711        0.00000
      24        6.30711        0.00000
      25        7.31054        0.00000
      26        7.31054        0.00000
      27        7.31054        0.00000
      28        7.31055        0.00000



 --------------------------------------------
 !FINAL_ETOT_IS -187.5813857072247 eV
 --------------------------------------------






  |CLASS_NAME---------|NAME---------------|TIME(Sec)-----|CALLS----|AVG------|PER%-------
                                      total         2669.9        17   1.6e+02   1.0e+02%
                 Driver         driver_line         2669.9         1   2.7e+03    1.e+02%
               PW_Basis      setuptransform        0.41042         1      0.41     0.015%
               PW_Basis  setup_struc_factor        0.51324         1      0.51     0.019%
          ESolver_KS_PW                 Run         2668.6         1   2.7e+03    1.e+02%
               PW_Basis          recip2real        0.93228        56     0.017     0.035%
               PW_Basis    gathers_scatterp        0.16220        56    0.0029    0.0061%
              Potential            init_pot        0.23819         1      0.24    0.0089%
              Potential  update_from_charge         4.1074         9      0.46      0.15%
              Potential           cal_v_eff         4.0977         9      0.46      0.15%
           H_Hartree_pw           v_hartree        0.39422         9     0.044     0.015%
               PW_Basis          real2recip         1.4251        88     0.016     0.053%
               PW_Basis    gatherp_scatters        0.16375        88    0.0019    0.0061%
                  PotXC           cal_v_eff         3.6724         9      0.41      0.14%
          XC_Functional                v_xc         1445.3         5   2.9e+02       54.%
          XC_Functional          v_xc_libxc         3.6459         9      0.41      0.14%
               Symmetry        rho_symmetry        0.26042         9     0.029    0.0098%
              HSolverPW               solve         2663.1         8   3.3e+02    1.e+02%
              WF_atomic          atomic_wfc        0.37480        84    0.0045     0.014%
                 WF_igk              get_sk        0.32188      1344   0.00024     0.012%
        DiagoIterAssist      diagH_subspace         463.16       672      0.69       17.%
             OperatorPW                hPsi         2193.7     77043     0.028       82.%
               Operator          EkineticPW         11.936     77043   0.00015      0.45%
               Operator              VeffPW         2177.4     77043     0.028       82.%
             PW_Basis_K          recip2real         1106.4    102721     0.011       41.%
             PW_Basis_K    gathers_scatterp         186.30    102721    0.0018       7.0%
             PW_Basis_K          real2recip         924.34     95187    0.0097       35.%
             PW_Basis_K    gatherp_scatters         52.568     95187   0.00055       2.0%
               Operator          NonlocalPW        0.24326     77043   3.2e-06    0.0091%
        DiagoIterAssist     LAPACK_subspace        0.47211       672   0.00070     0.018%
                DiagoCG           diag_once         2087.5       672       3.1       78.%
            ElecStatePW            psiToRho         108.16         8       14.       4.1%
                 Charge             mix_rho        0.59574         7     0.085     0.022%
 ----------------------------------------------------------------------------------------

 CLASS_NAME---------|NAME---------------|MEMORY(MB)--------
                                         351.2
             wavefunc                 psi          312.6
        Charge_Mixing                Rrho          9.611
        Charge_Mixing               dRrho          8.409
        Charge_Mixing                drho          8.409
             PW_Basis           struc_fac          2.106
               Charge                 rho          1.201
               Charge            rho_save          1.201
               Charge            rho_core          1.201
            Potential   v_effective_fixed          1.201
            Potential              vr_eff          1.201
        Charge_Mixing           rho_save2          1.201
 ----------------------------------------------------------

 Start  Time  : Mon Mar  6 13:58:28 2023
 Finish Time  : Mon Mar  6 14:42:58 2023
 Total  Time  : 0 h 44 mins 30 secs 
