 *********************************************************
 *                                                       *
 *                  WELCOME TO ABACUS v3.0               *
 *                                                       *
 *            'Atomic-orbital Based Ab-initio            *
 *                  Computation at UStc'                 *
 *                                                       *
 *          Website: http://abacus.ustc.edu.cn/          *
 *                                                       *
 *********************************************************
 Wed Dec 28 12:40:20 2022
 MAKE THE DIR         : OUT.blpstest/
Notice: symbol 'mg_locpsp' is not an element symbol!!!! set the covalent radius to be 0.
 UNIFORM GRID DIM     : 27 * 27 * 27
 UNIFORM GRID DIM(BIG): 27 * 27 * 27
func,idXC_GGA_X_PBE 101
func,idXC_GGA_C_PBE 130
 DONE(0.152779   SEC) : SETUP UNITCELL
 DONE(0.219681   SEC) : SYMMETRY
 DONE(0.622449   SEC) : INIT K-POINTS
 ---------------------------------------------------------
 Self-consistent calculations for electrons
 ---------------------------------------------------------
 SPIN    KPOINTS         PROCESSORS  
 1       286             1           
 ---------------------------------------------------------
 Use plane wave basis
 ---------------------------------------------------------
 ELEMENT NATOM       XC          
 Mg      1           
 ---------------------------------------------------------
 Initial plane wave basis and FFT box
 ---------------------------------------------------------
 DONE(0.741576   SEC) : INIT PLANEWAVE
 MEMORY FOR PSI (MB)  : 37.3647
 DONE(0.761777   SEC) : LOCAL POTENTIAL
 DONE(0.762041   SEC) : NON-LOCAL POTENTIAL
 DONE(0.762599   SEC) : INIT BASIS
 START CHARGE      : atomic
 DONE(0.828513   SEC) : INIT SCF
 ITER   ETOT(eV)       EDIFF(eV)      DRHO       TIME(s)    
 CG1    -2.360205e+01  0.000000e+00   3.509e-02  2.474e+01  
 CG2    -2.382649e+01  -2.244356e-01  3.322e-03  7.007e+00  
 CG3    -2.383047e+01  -3.975635e-03  1.314e-05  5.274e+00  
 CG4    -2.383064e+01  -1.781544e-04  3.798e-06  6.999e+00  
 CG5    -2.383066e+01  -1.325241e-05  2.865e-07  3.648e+00  
 CG6    -2.383066e+01  -2.638531e-07  6.912e-09  4.115e+00  
 CG7    -2.383066e+01  -6.374099e-09  3.047e-11  4.571e+00  

  |CLASS_NAME---------|NAME---------------|TIME(Sec)-----|CALLS----|AVG------|PER%-------
                       total               57.194         17        3.4       1e+02     %
   Driver              driver_line         57.164         1         57        1e+02     %
   PW_Basis            setuptransform      0.10951        1         0.11      0.19      %
   ESolver_KS_PW       Run                 56.423         1         56        99        %
   Potential           update_from_charge  0.15927        8         0.02      0.28      %
   Potential           cal_v_eff           0.15757        8         0.02      0.28      %
   PotXC               cal_v_eff           0.1448         8         0.018     0.25      %
   XC_Functional       v_xc                38.245         4         9.6       67        %
   XC_Functional       v_xc_libxc          0.14447        8         0.018     0.25      %
   HSolverPW           solve               56.205         7         8         98        %
   DiagoIterAssist     diagH_subspace      10.042         2002      0.005     18        %
   OperatorPW          hPsi                51.197         45438     0.0011    90        %
   Operator            EkineticPW          0.23459        45438     5.2e-06   0.41      %
   Operator            VeffPW              50.782         45438     0.0011    89        %
   PW_Basis_K          recip2real          25.838         57604     0.00045   45        %
   PW_Basis_K          gathers_scatterp    1.8608         57604     3.2e-05   3.3       %
   PW_Basis_K          real2recip          23.349         55448     0.00042   41        %
   PW_Basis_K          gatherp_scatters    0.60193        55448     1.1e-05   1.1       %
   DiagoCG             diag_once           44.448         2002      0.022     78        %
   ElecStatePW         psiToRho            0.8149         7         0.12      1.4       %
 ----------------------------------------------------------------------------------------

 START  Time  : Wed Dec 28 12:40:20 2022
 FINISH Time  : Wed Dec 28 12:41:17 2022
 TOTAL  Time  : 57
 SEE INFORMATION IN : OUT.blpstest/
