 *********************************************************
 *                                                       *
 *                  WELCOME TO ABACUS v3.0               *
 *                                                       *
 *            'Atomic-orbital Based Ab-initio            *
 *                  Computation at UStc'                 *
 *                                                       *
 *          Website: http://abacus.ustc.edu.cn/          *
 *                                                       *
 *********************************************************
 Wed Dec 28 12:30:01 2022
 MAKE THE DIR         : OUT.blpstest/
Notice: symbol 'Li_locpsp' is not an element symbol!!!! set the covalent radius to be 0.
 UNIFORM GRID DIM     : 25 * 25 * 25
 UNIFORM GRID DIM(BIG): 25 * 25 * 25
func,idXC_GGA_X_PBE 101
func,idXC_GGA_C_PBE 130
 DONE(0.0854482  SEC) : SETUP UNITCELL
 DONE(0.14033    SEC) : SYMMETRY
 DONE(0.493338   SEC) : INIT K-POINTS
 ---------------------------------------------------------
 Self-consistent calculations for electrons
 ---------------------------------------------------------
 SPIN    KPOINTS         PROCESSORS  
 1       256             1           
 ---------------------------------------------------------
 Use plane wave basis
 ---------------------------------------------------------
 ELEMENT NATOM       XC          
 Li      1           
 ---------------------------------------------------------
 Initial plane wave basis and FFT box
 ---------------------------------------------------------
 DONE(0.545862   SEC) : INIT PLANEWAVE
 MEMORY FOR PSI (MB)  : 15.4102
 DONE(0.556406   SEC) : LOCAL POTENTIAL
 DONE(0.556445   SEC) : NON-LOCAL POTENTIAL
 DONE(0.55651    SEC) : INIT BASIS
 START CHARGE      : atomic
 DONE(0.588105   SEC) : INIT SCF
 ITER   ETOT(eV)       EDIFF(eV)      DRHO       TIME(s)    
 CG1    -7.384354e+00  0.000000e+00   1.039e-02  8.421e+00  
 CG2    -7.457611e+00  -7.325741e-02  1.059e-03  3.727e+00  
 CG3    -7.458240e+00  -6.286684e-04  1.832e-07  3.834e+00  
 CG4    -7.458267e+00  -2.704336e-05  8.775e-08  7.128e+00  
 CG5    -7.458267e+00  -3.449427e-07  3.615e-09  4.216e+00  
 CG6    -7.458267e+00  -3.887875e-09  2.726e-10  3.913e+00  

  |CLASS_NAME---------|NAME---------------|TIME(Sec)-----|CALLS----|AVG------|PER%-------
                       total               31.848         17        1.9       1e+02     %
   Driver              driver_line         31.838         1         32        1e+02     %
   ESolver_KS_PW       Run                 31.282         1         31        98        %
   Potential           update_from_charge  0.12646        7         0.018     0.4       %
   Potential           cal_v_eff           0.1258         7         0.018     0.4       %
   PotXC               cal_v_eff           0.11631        7         0.017     0.37      %
   XC_Functional       v_xc                16.474         4         4.1       52        %
   XC_Functional       v_xc_libxc          0.11602        7         0.017     0.36      %
   HSolverPW           solve               31.106         6         5.2       98        %
   DiagoIterAssist     diagH_subspace      5.8951         1536      0.0038    19        %
   OperatorPW          hPsi                28.668         32042     0.00089   90        %
   Operator            EkineticPW          0.13821        32042     4.3e-06   0.43      %
   Operator            VeffPW              28.399         32042     0.00089   89        %
   PW_Basis_K          recip2real          14.338         39116     0.00037   45        %
   PW_Basis_K          gathers_scatterp    1.2833         39116     3.3e-05   4         %
   PW_Basis_K          real2recip          13.063         38186     0.00034   41        %
   PW_Basis_K          gatherp_scatters    0.33151        38186     8.7e-06   1         %
   DiagoCG             diag_once           24.412         1536      0.016     77        %
   ElecStatePW         psiToRho            0.39222        6         0.065     1.2       %
 ----------------------------------------------------------------------------------------

 START  Time  : Wed Dec 28 12:30:01 2022
 FINISH Time  : Wed Dec 28 12:30:33 2022
 TOTAL  Time  : 32
 SEE INFORMATION IN : OUT.blpstest/
