                                                                                     
                             WELCOME TO ABACUS                                       
                                                                                     
               'Atomic-orbital Based Ab-initio Computation at UStc'                  
                                                                                     
                     Website: http://abacus.ustc.edu.cn/                             
                                                                                     
    Version: Parallel, in development
    Processor Number is 1
    Start Time is Sat Aug  7 21:52:24 2021
                                                                                     
 ------------------------------------------------------------------------------------

 READING GENERAL INFORMATION
                           global_out_dir = OUT.stack/
                           global_in_card = INPUT
                               pseudo_dir = ./
                              pseudo_type = blps
                                    DRANK = 1
                                    DSIZE = 1
                                   DCOLOR = 1
                                    GRANK = 1
                                    GSIZE = 1




 >>>>>>>>>>>>>>>>>>>>>>>>>>>>>>>>>>>>>>>>>>>>>>>>>>>>>>>>>>>>>>>>>>>>>>
 |                                                                    |
 | Reading atom information in unitcell:                              |
 | From the input file and the structure file we know the number of   |
 | different elments in this unitcell, then we list the detail        |
 | information for each element, especially the zeta and polar atomic |
 | orbital number for each element. The total atom number is counted. |
 | We calculate the nearest atom distance for each atom and show the  |
 | Cartesian and Direct coordinates for each atom. We list the file   |
 | address for atomic orbitals. The volume and the lattice vectors    |
 | in real and reciprocal space is also shown.                        |
 |                                                                    |
 <<<<<<<<<<<<<<<<<<<<<<<<<<<<<<<<<<<<<<<<<<<<<<<<<<<<<<<<<<<<<<<<<<<<<<




 READING UNITCELL INFORMATION
                                    ntype = 1
                 atom label for species 1 = Al
                  lattice constant (Bohr) = 7.50241
              lattice constant (Angstrom) = 3.9701

 READING ATOM TYPE 1
                               atom label = Al
                      start magnetization = FALSE
                      L=0, number of zeta = 1
                      L=1, number of zeta = 1
                      L=2, number of zeta = 1
             number of atom for this type = 22

                        TOTAL ATOM NUMBER = 22

 DIRECT COORDINATES
         atom                   x                   y                   z                 mag
     taud_Al1                   0                   0                   0                   0
     taud_Al2            0.333333            0.333333           0.0454545                   0
     taud_Al3            0.666667            0.666667           0.0909091                   0
     taud_Al4                   0                   0            0.136364                   0
     taud_Al5            0.333333            0.333333            0.181818                   0
     taud_Al6                   0                   0            0.227273                   0
     taud_Al7            0.333333            0.333333            0.272727                   0
     taud_Al8            0.666667            0.666667            0.318182                   0
     taud_Al9                   0                   0            0.363636                   0
    taud_Al10            0.333333            0.333333            0.409091                   0
    taud_Al11            0.666667            0.666667            0.454545                   0
    taud_Al12            0.333333            0.333333                 0.5                   0
    taud_Al13                   0                   0            0.545455                   0
    taud_Al14            0.666667            0.666667            0.590909                   0
    taud_Al15            0.333333            0.333333            0.636364                   0
    taud_Al16                   0                   0            0.681818                   0
    taud_Al17            0.333333            0.333333            0.727273                   0
    taud_Al18                   0                   0            0.772727                   0
    taud_Al19            0.666667            0.666667            0.818182                   0
    taud_Al20            0.333333            0.333333            0.863636                   0
    taud_Al21                   0                   0            0.909091                   0
    taud_Al22            0.666667            0.666667            0.954545                   0


                          Volume (Bohr^3) = 2322.55
                             Volume (A^3) = 344.166

 Lattice vectors: (Cartesian coordinate: in unit of a_0)
            +0.707107                  +0                  +0
            +0.353553           +0.612372                  +0
                   +0                  +0            +12.7017
 Reciprocal vectors: (Cartesian coordinate: in unit of 2 pi/a_0)
             +1.41421           -0.816497                  +0
                   -0            +1.63299                  -0
                   +0                  -0          +0.0787296




 >>>>>>>>>>>>>>>>>>>>>>>>>>>>>>>>>>>>>>>>>>>>>>>>>>>>>>>>>>>>>>>>>>>>>>
 |                                                                    |
 | Reading pseudopotentials files:                                    |
 | The pseudopotential file is in UPF format. The 'NC' indicates that |
 | the type of pseudopotential is 'norm conserving'. Functional of    |
 | exchange and correlation is decided by 4 given parameters in UPF   |
 | file.  We also read in the 'core correction' if there exists.      |
 | Also we can read the valence electrons number and the maximal      |
 | angular momentum used in this pseudopotential. We also read in the |
 | trail wave function, trail atomic density and local-pseudopotential|
 | on logrithmic grid. The non-local pseudopotential projector is also|
 | read in if there is any.                                           |
 |                                                                    |
 <<<<<<<<<<<<<<<<<<<<<<<<<<<<<<<<<<<<<<<<<<<<<<<<<<<<<<<<<<<<<<<<<<<<<<




                PAO radial cut off (Bohr) = 16

 Read in pseudopotential file is al.lda.lps
                     pseudopotential type = 
                            functional Ex = LDA
                            functional Ec = LDA
                          functional GCEx = NOGX
                          functional GCEc = NOGC
                 nonlocal core correction = 0
                        valence electrons = 3
                                     lmax = 0
                           number of zeta = 0
                     number of projectors = 0
     initial pseudo atomic orbital number = 0
                                   NLOCAL = 198

 SETUP THE ELECTRONS NUMBER
            electron number of element Al = 3
      total electron number of element Al = 66
                           occupied bands = 33
                                   NBANDS = 60
 DONE : SETUP UNITCELL Time : 0.010834 (SEC)





 >>>>>>>>>>>>>>>>>>>>>>>>>>>>>>>>>>>>>>>>>>>>>>>>>>>>>>>>>>>>>>>>>>>>>>
 |                                                                    |
 | Doing symmetry analysis:                                           |
 | We calculate the norm of 3 vectors and the angles between them,    |
 | the type of Bravais lattice is given. We can judge if the unticell |
 | is a primitive cell. Finally we give the point group operation for |
 | this unitcell. We we use the point group operations to do symmetry |
 | analysis on given k-point mesh and the charge density.             |
 |                                                                    |
 <<<<<<<<<<<<<<<<<<<<<<<<<<<<<<<<<<<<<<<<<<<<<<<<<<<<<<<<<<<<<<<<<<<<<<




 LATTICE VECTORS: (CARTESIAN COORDINATE: IN UNIT OF A0)
            +0.707107                  +0                  +0
            +0.353553           +0.612372                  +0
                   +0                  +0            +12.7017
                       right hand lattice = 1
                                   NORM_A = 0.707107
                                   NORM_B = 0.707107
                                   NORM_C = 12.7017
                           ALPHA (DEGREE) = 60
                           BETA  (DEGREE) = 90
                           GAMMA (DEGREE) = 90
                             BRAVAIS TYPE = 4
                     BRAVAIS LATTICE NAME = 04. Hexagonal cell
 STANDARD LATTICE VECTORS: (CARTESIAN COORDINATE: IN UNIT OF A0)
            +0.707107                  +0                  +0
            +0.353553           +0.612372                  +0
                   +0                  +0            +12.7017
                                    IBRAV = 4
                                  BRAVAIS = HEXAGONAL CELL
                       LATTICE CONSTANT A = 38.1903
                                C/A RATIO = 0.666981
                                    ibrav = 4
                        ROTATION MATRICES = 24
              PURE POINT GROUP OPERATIONS = 2
                   SPACE GROUP OPERATIONS = 4
                                       C2 = 0
                                       C3 = 0
                                       C4 = 0
                                       C6 = 0
                                       S1 = 1
                                       S3 = 0
                                       S4 = 0
                                       S6 = 0
                              POINT GROUP = C_1h
 DONE : SYMMETRY Time : 0.076257 (SEC)





 >>>>>>>>>>>>>>>>>>>>>>>>>>>>>>>>>>>>>>>>>>>>>>>>>>>>>>>>>>>>>>>>>>>>>>
 |                                                                    |
 | Setup K-points                                                     |
 | We setup the k-points according to input parameters.               |
 | The reduced k-points are set according to symmetry operations.     |
 | We treat the spin as another set of k-points.                      |
 |                                                                    |
 <<<<<<<<<<<<<<<<<<<<<<<<<<<<<<<<<<<<<<<<<<<<<<<<<<<<<<<<<<<<<<<<<<<<<<





 SETUP K-POINTS
                                    nspin = 1
                   Input type of k points = Monkhorst-Pack(Gamma)
                                   nkstot = 100
                               nkstot_ibz = 31
      IBZ             DirectX             DirectY             DirectZ              Weight    ibz2bz
        1                   0                   0                   0                0.01         0
        2                   0                 0.9                   0                0.04         1
        3                 0.8                   0                   0                0.04         2
        4                   0                 0.7                   0                0.04         3
        5                 0.6                   0                   0                0.04         4
        6                   0                 0.5                   0                0.02         5
        7                 0.9                 0.9                   0                0.02        11
        8                 0.9                 0.8                   0                0.04        12
        9                 0.9                 0.7                   0                0.04        13
       10                 0.9                 0.6                   0                0.04        14
       11                 0.9                 0.5                   0                0.04        15
       12                 0.9                 0.4                   0                0.04        16
       13                 0.9                 0.3                   0                0.04        17
       14                 0.9                 0.2                   0                0.04        18
       15                 0.9                 0.1                   0                0.02        19
       16                 0.8                 0.8                   0                0.02        22
       17                 0.8                 0.7                   0                0.04        23
       18                 0.8                 0.6                   0                0.04        24
       19                 0.8                 0.5                   0                0.04        25
       20                 0.8                 0.4                   0                0.04        26
       21                 0.8                 0.3                   0                0.04        27
       22                 0.2                 0.8                   0                0.02        28
       23                 0.7                 0.7                   0                0.02        33
       24                 0.7                 0.6                   0                0.04        34
       25                 0.7                 0.5                   0                0.04        35
       26                 0.7                 0.4                   0                0.04        36
       27                 0.7                 0.3                   0                0.02        37
       28                 0.6                 0.6                   0                0.02        44
       29                 0.6                 0.5                   0                0.04        45
       30                 0.4                 0.6                   0                0.02        46
       31                 0.5                 0.5                   0                0.01        55
                               nkstot now = 31

  KPOINTS            DIRECT_X            DIRECT_Y            DIRECT_Z              WEIGHT
        1                   0                   0                   0                0.01
        2                   0                 0.9                   0                0.04
        3                 0.8                   0                   0                0.04
        4                   0                 0.7                   0                0.04
        5                 0.6                   0                   0                0.04
        6                   0                 0.5                   0                0.02
        7                 0.9                 0.9                   0                0.02
        8                 0.9                 0.8                   0                0.04
        9                 0.9                 0.7                   0                0.04
       10                 0.9                 0.6                   0                0.04
       11                 0.9                 0.5                   0                0.04
       12                 0.9                 0.4                   0                0.04
       13                 0.9                 0.3                   0                0.04
       14                 0.9                 0.2                   0                0.04
       15                 0.9                 0.1                   0                0.02
       16                 0.8                 0.8                   0                0.02
       17                 0.8                 0.7                   0                0.04
       18                 0.8                 0.6                   0                0.04
       19                 0.8                 0.5                   0                0.04
       20                 0.8                 0.4                   0                0.04
       21                 0.8                 0.3                   0                0.04
       22                 0.2                 0.8                   0                0.02
       23                 0.7                 0.7                   0                0.02
       24                 0.7                 0.6                   0                0.04
       25                 0.7                 0.5                   0                0.04
       26                 0.7                 0.4                   0                0.04
       27                 0.7                 0.3                   0                0.02
       28                 0.6                 0.6                   0                0.02
       29                 0.6                 0.5                   0                0.04
       30                 0.4                 0.6                   0                0.02
       31                 0.5                 0.5                   0                0.01

           k-point number in this process = 31
       minimum distributed K point number = 31

  KPOINTS         CARTESIAN_X         CARTESIAN_Y         CARTESIAN_Z              WEIGHT
        1                   0                   0                   0                0.02
        2                   0             1.46969                   0                0.08
        3             1.13137           -0.653197                   0                0.08
        4                   0              1.1431                   0                0.08
        5            0.848528           -0.489898                   0                0.08
        6                   0            0.816497                   0                0.04
        7             1.27279            0.734847                   0                0.04
        8             1.27279            0.571548                   0                0.08
        9             1.27279            0.408248                   0                0.08
       10             1.27279            0.244949                   0                0.08
       11             1.27279           0.0816497                   0                0.08
       12             1.27279          -0.0816497                   0                0.08
       13             1.27279           -0.244949                   0                0.08
       14             1.27279           -0.408248                   0                0.08
       15             1.27279           -0.571548                   0                0.04
       16             1.13137            0.653197                   0                0.04
       17             1.13137            0.489898                   0                0.08
       18             1.13137            0.326599                   0                0.08
       19             1.13137            0.163299                   0                0.08
       20             1.13137                   0                   0                0.08
       21             1.13137           -0.163299                   0                0.08
       22            0.282843              1.1431                   0                0.04
       23            0.989949            0.571548                   0                0.04
       24            0.989949            0.408248                   0                0.08
       25            0.989949            0.244949                   0                0.08
       26            0.989949           0.0816497                   0                0.08
       27            0.989949          -0.0816497                   0                0.04
       28            0.848528            0.489898                   0                0.04
       29            0.848528            0.326599                   0                0.08
       30            0.565685            0.653197                   0                0.04
       31            0.707107            0.408248                   0                0.02

  KPOINTS            DIRECT_X            DIRECT_Y            DIRECT_Z              WEIGHT
        1                   0                   0                   0                0.02
        2                   0                 0.9                   0                0.08
        3                 0.8                   0                   0                0.08
        4                   0                 0.7                   0                0.08
        5                 0.6                   0                   0                0.08
        6                   0                 0.5                   0                0.04
        7                 0.9                 0.9                   0                0.04
        8                 0.9                 0.8                   0                0.08
        9                 0.9                 0.7                   0                0.08
       10                 0.9                 0.6                   0                0.08
       11                 0.9                 0.5                   0                0.08
       12                 0.9                 0.4                   0                0.08
       13                 0.9                 0.3                   0                0.08
       14                 0.9                 0.2                   0                0.08
       15                 0.9                 0.1                   0                0.04
       16                 0.8                 0.8                   0                0.04
       17                 0.8                 0.7                   0                0.08
       18                 0.8                 0.6                   0                0.08
       19                 0.8                 0.5                   0                0.08
       20                 0.8                 0.4                   0                0.08
       21                 0.8                 0.3                   0                0.08
       22                 0.2                 0.8                   0                0.04
       23                 0.7                 0.7                   0                0.04
       24                 0.7                 0.6                   0                0.08
       25                 0.7                 0.5                   0                0.08
       26                 0.7                 0.4                   0                0.08
       27                 0.7                 0.3                   0                0.04
       28                 0.6                 0.6                   0                0.04
       29                 0.6                 0.5                   0                0.08
       30                 0.4                 0.6                   0                0.04
       31                 0.5                 0.5                   0                0.02
 DONE : INIT K-POINTS Time : 0.0773089 (SEC)





 >>>>>>>>>>>>>>>>>>>>>>>>>>>>>>>>>>>>>>>>>>>>>>>>>>>>>>>>>>>>>>>>>>>>>>
 |                                                                    |
 | Setup plane waves:                                                 |
 | Use the energy cutoff and the lattice vectors to generate the      |
 | dimensions of FFT grid. The number of FFT grid on each processor   |
 | is 'nrxx'. The number of plane wave basis in reciprocal space is   |
 | different for charege/potential and wave functions. We also set    |
 | the 'sticks' for the parallel of FFT.                              |
 |                                                                    |
 <<<<<<<<<<<<<<<<<<<<<<<<<<<<<<<<<<<<<<<<<<<<<<<<<<<<<<<<<<<<<<<<<<<<<<





 SETUP THE PLANE WAVE BASIS
     energy cutoff for wavefunc (unit:Ry) = 40
            [fft grid for wave functions] = 24, 24, 384
          [fft grid for charge/potential] = 24, 24, 384
                      [fft grid division] = 1, 1, 1
      [big fft grid for charge/potential] = 24, 24, 384
                                     nbxx = 221184
                                     nrxx = 221184

 SETUP PLANE WAVES FOR CHARGE/POTENTIAL
                    number of plane waves = 79703
                         number of sticks = 313

 SETUP PLANE WAVES FOR WAVE FUNCTIONS
                    number of plane waves = 16873
                         number of sticks = 109

 PARALLEL PW FOR CHARGE/POTENTIAL
     PROC   COLUMNS(POT)             PW
        1            313          79703
 --------------- sum -------------------
        1            313          79703

 PARALLEL PW FOR WAVE FUNCTIONS
     PROC     COLUMNS(W)             PW
        1            109          16873
 --------------- sum -------------------
        1            109          16873

 SETUP COORDINATES OF PLANE WAVES
              number of total plane waves = 79703

 SETUP COORDINATES OF PLANE WAVES
                            number of |g| = 4208
                                  max |g| = 228.078
                                  min |g| = 0
 DONE : INIT PLANEWAVE Time : 0.397301 (SEC)

                                     npwx = 10043

 SETUP NONLOCAL PSEUDOPOTENTIALS IN PLANE WAVE BASIS
 Al non-local projectors:
      TOTAL NUMBER OF NONLOCAL PROJECTORS = 0

 nhm = 0, not allocate some matrix. DONE : LOCAL POTENTIAL Time : 1.36807 (SEC)


 Init Non-Local PseudoPotential table : 
 Init Non-Local-Pseudopotential done.
 DONE : NON-LOCAL POTENTIAL Time : 1.36812 (SEC)

                                start_pot = atomic
 DONE : INIT POTENTIAL Time : 1.85696 (SEC)


 Make real space PAO into reciprocal space.
       max mesh points in Pseudopotential = 1601
     dq(describe PAO in reciprocal space) = 0.01
                                    max q = 764

 number of pseudo atomic orbitals for Al is 0
 DONE : INIT BASIS Time : 155.764 (SEC)

 -------------------------------------------
 RELAX CELL : 1
 RELAX IONS : 1 (in total: 1)
 ---------------------------------------------------------
 -------------------------------------------

 PW ALGORITHM --------------- ION=   1  ELEC=   1--------------------------------
  K-point    CG iter num      Time(Sec)
        1       8.116667      54.418041
        2       8.783333      41.614434
        3       8.316667      56.213274
        4       8.416667      55.426756
        5       8.566667      54.180030
        6       8.266667      50.873434
        7       8.316667      50.429400
        8       8.066667      48.953613
        9       8.316667      54.053818
       10       8.333333      54.846628
       11       8.583333      57.553290
       12       8.466667      56.870504
       13       8.166667      52.249753
       14       8.316667      51.419888
       15       8.366667      50.809042
       16       8.583333      51.643261
       17       8.333333      50.894934
       18       8.100000      52.569142
       19       8.400000      54.059551
       20       8.283333      56.378373
       21       8.650000      56.101076
       22       8.383333      52.637936
       23       8.516667      52.549247
       24       8.533333      51.974762
       25       8.250000      49.625351
       26       8.200000      51.047129
       27       8.383333      53.919533
       28       8.616667      57.034763
       29       8.533333      57.092975
       30       8.216667      49.146691
       31       8.316667      49.022180

 Density error is 1.871342690812
                          Error Threshold = 0.010000000000

       Energy                       Rydberg                            eV
   E_KohnSham              -93.292144866565            -1269.304748826737
     E_Harris              -93.687530864639            -1274.684251309955
      E_Fermi               +0.620043594412               +8.436125892410

 PW ALGORITHM --------------- ION=   1  ELEC=   2--------------------------------
  K-point    CG iter num      Time(Sec)
        1       5.383333      36.263519
        2       5.533333      35.923762
        3       4.500000      31.533340
        4       4.233333      30.967265
        5       3.683333      25.954855
        6       3.716667      19.310660
        7       5.600000      18.373479
        8       5.316667      17.263377
        9       5.033333      16.365438
       10       4.483333      14.475568
       11       4.333333      14.369898
       12       4.133333      13.505151
       13       4.583333      14.691096
       14       5.316667      16.984202
       15       5.483333      17.761272
       16       4.833333      15.916270
       17       5.333333      17.113243
       18       5.100000      16.159637
       19       4.716667      15.350573
       20       4.216667      13.670092
       21       4.666667      15.032692
       22       5.183333      16.465658
       23       4.150000      13.729486
       24       4.550000      14.712469
       25       4.650000      17.410190
       26       4.383333      30.703000
       27       4.116667      28.231773
       28       3.750000      25.631039
       29       4.333333      28.820756
       30       4.366667      29.891697
       31       3.516667      23.847808

 Density error is 326.452880564209
                          Error Threshold = 0.002835367713

       Energy                       Rydberg                            eV
   E_KohnSham             +222.414557085712            +3026.105294511964
     E_Harris              -94.850133473983            -1290.502271306697
      E_Fermi               +0.601447887314               +8.183118317534

 PW ALGORITHM --------------- ION=   1  ELEC=   3--------------------------------
  K-point    CG iter num      Time(Sec)
        1      57.333333     187.549442
        2      59.116667     160.120400
        3      58.083333     305.806419
        4      58.116667     318.527920
        5      59.333333     325.650282
        6      58.283333     320.336537
        7      58.550000     321.264617
        8      58.483333     321.163233
        9      58.100000     319.843623
       10      58.300000     321.840597
       11      57.983333     325.332392
       12      59.266667     328.938178
       13      58.566667     182.296531
       14      59.666667     163.095973
       15      58.100000     158.446245
       16      57.750000     159.302387
       17      59.316667     209.700483
       18      58.483333     160.728541
       19      58.516667     161.004346
       20      59.616667     164.041621
       21      58.400000     160.600409
       22      58.316667     160.499156
       23      58.116667     161.118266
       24      59.133333     163.087815
       25      59.233333     162.889274
       26      58.933333     163.564316
       27      57.683333     158.426288
       28      57.616667     156.662529
       29      57.683333     159.240196
       30      59.433333     163.067158
       31      58.216667     160.827732

 Density error is 17510.788193042539
                          Error Threshold = 0.002835367713

       Energy                       Rydberg                            eV
   E_KohnSham            -1939.257730840740           -26384.955029984398
     E_Harris            -3193.095189382675           -43444.288831993486
      E_Fermi              -41.755184957584             -568.108436467025

 PW ALGORITHM --------------- ION=   1  ELEC=   4--------------------------------
  K-point    CG iter num      Time(Sec)
        1      39.416667     110.973103
        2      42.883333     120.176810
        3      42.733333     128.574702
        4      43.983333     122.600095
        5      44.433333     121.871342
        6      43.933333     124.359272
        7      42.133333     133.189549
        8      41.066667     232.110688
        9      44.400000     248.507120
       10      42.966667     237.978820
       11      44.050000     243.837150
       12      43.933333     240.142820
       13      43.850000     242.750049
       14      43.233333     241.445269
       15      43.233333     142.564871
       16      42.950000     117.739028
       17      44.216667     120.579125
       18      43.433333     232.761165
       19      43.933333     245.034564
       20      43.700000     242.104382
       21      44.400000     246.961916
       22      43.083333     238.876204
       23      43.700000     241.742715
       24      43.033333     239.611111
       25      44.183333     244.955334
       26      43.283333     239.244007
       27      44.383333     247.671822
       28      44.466667     248.000575
       29      42.916667     241.877628
       30      43.233333     244.861772
       31      42.750000     242.497196

 Density error is 12513.029767371418
                          Error Threshold = 0.002835367713

       Energy                       Rydberg                            eV
   E_KohnSham            -1146.936076553944           -15604.865882897840
     E_Harris            -2012.596503555562           -27382.780223232905
      E_Fermi              -25.876244639858             -352.064369944028

 PW ALGORITHM --------------- ION=   1  ELEC=   5--------------------------------
  K-point    CG iter num      Time(Sec)
        1      40.550000     230.455363
        2      40.150000     227.261038
        3      41.350000     233.376873
        4      40.816667     223.986379
        5      40.783333     228.638826
        6      36.433333     203.665414
        7      41.383333     234.286951
        8      41.483333     233.715800
        9      38.516667     214.813819
       10      42.200000     237.039698
       11      38.050000     210.714201
       12      40.333333     227.137532
       13      42.416667     237.934356
       14      41.483333     234.984599
       15      42.966667     242.336554
       16      40.616667     231.319129
       17      38.750000     217.185964
       18      41.533333     235.623155
       19      40.233333     230.417670
       20      39.500000     225.124878
       21      41.116667     234.228731
       22      42.216667     239.432455
       23      42.450000     241.923047
       24      42.216667     238.645901
       25      38.883333     222.886461
       26      36.733333     205.530782
       27      38.000000     212.031355
       28      37.133333     207.828987
       29      40.916667     231.871714
       30      36.466667     204.124099
       31      38.683333     220.566810

 Density error is 8326.344386421155
                          Error Threshold = 0.002835367713

       Energy                       Rydberg                            eV
   E_KohnSham             -668.292758481792            -9092.589447490202
     E_Harris            -1219.569801262313           -16593.098405895049
      E_Fermi              -14.817034674456             -201.596099036177

 PW ALGORITHM --------------- ION=   1  ELEC=   6--------------------------------
  K-point    CG iter num      Time(Sec)
        1      36.116667     208.130163
        2      39.400000     227.006656
        3      39.216667     224.075346
        4      39.050000     223.888152
        5      38.916667     223.423921
        6      38.516667     221.904056
        7      39.933333     229.130859
        8      37.183333     214.218986
        9      40.650000     232.293238
       10      38.683333     221.009115
       11      39.866667     225.344758
       12      40.183333     227.611456
       13      38.533333     218.394995
       14      39.566667     226.017987
       15      38.950000     223.755350
       16      38.733333     220.919625
       17      40.850000     233.071757
       18      38.683333     221.485085
       19      40.233333     230.469032
       20      38.616667     222.140143
       21      40.583333     231.468970
       22      38.183333     215.604019
       23      38.983333     220.990502
       24      38.900000     218.666687
       25      39.183333     218.647840
       26      40.300000     228.621011
       27      40.266667     229.451319
       28      39.300000     224.138174
       29      39.750000     226.398417
       30      39.150000     223.707561
       31      37.516667     213.892797

 Density error is 14479.690628966544
                          Error Threshold = 0.002835367713

       Energy                       Rydberg                            eV
   E_KohnSham             -282.286380407112            -3840.703241332281
     E_Harris             -934.952797294851           -12720.685404248959
      E_Fermi              -10.603451150942             -144.267354117470

 PW ALGORITHM --------------- ION=   1  ELEC=   7--------------------------------
  K-point    CG iter num      Time(Sec)
        1      43.766667     245.674392
        2      45.116667     250.021441
        3      45.600000     253.980409
        4      45.816667     255.344933
        5      44.633333     247.995136
        6      43.616667     243.508334
        7      44.816667     248.339296
        8      45.700000     167.105889
        9      44.583333     121.414903
       10      44.416667     120.182404
       11      43.116667     117.762575
       12      44.800000     123.294352
       13      43.700000     119.673839
       14      45.650000     123.598207
       15      44.900000     123.435336
       16      45.316667     123.794089
       17      44.433333     121.774517
       18      43.766667     119.909339
       19      45.466667     125.267788
       20      41.883333     114.454241
       21      45.416667     124.488277
       22      42.416667     115.471750
       23      44.800000     121.668528
       24      44.566667     122.198003
       25      43.766667     120.845050
       26      42.550000     118.174200
       27      43.433333     117.329914
       28      43.000000     117.533209
       29      44.366667     120.966464
       30      41.566667     115.072534
       31      42.283333     116.832558

 Density error is 14262.725155039621
                          Error Threshold = 0.002835367713

       Energy                       Rydberg                            eV
   E_KohnSham             -385.144632418872            -5240.161555012179
     E_Harris             -879.732391715880           -11969.373242503962
      E_Fermi               -9.936847729302             -135.197749276869

 PW ALGORITHM --------------- ION=   1  ELEC=   8--------------------------------
  K-point    CG iter num      Time(Sec)
        1      33.433333      93.291026
        2      32.083333      88.224205
        3      31.283333      86.880923
        4      30.083333      83.240027
        5      29.533333      80.199048
        6      28.866667      79.000963
        7      32.383333      89.525491
        8      29.516667      81.447242
        9      29.583333      80.152649
       10      29.066667      79.041502
       11      29.283333      81.393572
       12      29.216667      80.450628
       13      28.883333      80.349771
       14      29.533333      81.494191
       15      30.216667      82.704004
       16      31.216667      85.660738
       17      29.866667      82.500963
       18      28.866667      79.124844
       19      28.800000      78.536358
       20      28.366667      77.109979
       21      28.816667      79.259702
       22      29.066667      80.239328
       23      29.833333      82.150477
       24      29.300000      80.046919
       25      29.200000      80.482220
       26      27.516667      75.405592
       27      27.366667      75.389662
       28      28.750000      78.423244
       29      28.916667      79.522532
       30      27.050000      74.375912
       31      28.266667      77.169398

 Density error is 5627.679086518877
                          Error Threshold = 0.002835367713

       Energy                       Rydberg                            eV
   E_KohnSham             -366.602136484625            -4987.877955164589
     E_Harris             -469.842766474273            -6392.538788133489
      E_Fermi               -4.594611381229              -62.512894880361

 PW ALGORITHM --------------- ION=   1  ELEC=   9--------------------------------
  K-point    CG iter num      Time(Sec)
        1      19.600000      56.740319
        2      21.766667      62.488938
        3      20.200000      58.721147
        4      18.650000      54.328037
        5      18.100000      52.933269
        6      17.066667      49.825003
        7      22.833333      66.429802
        8      19.366667      56.530652
        9      18.466667      53.757465
       10      17.716667      51.313201
       11      17.283333      51.186747
       12      17.050000      49.646402
       13      17.466667      51.574811
       14      18.116667      53.369439
       15      19.283333      55.739945
       16      19.783333      56.994781
       17      19.083333      55.533660
       18      17.650000      51.631760
       19      15.983333      47.112636
       20      15.050000      44.983774
       21      15.733333      46.292619
       22      16.833333      48.612030
       23      17.583333      51.396756
       24      17.683333      51.725197
       25      16.283333      47.596085
       26      13.666667      41.058371
       27      13.983333      41.722991
       28      16.800000      49.686402
       29      16.450000      48.922476
       30      14.966667      43.699553
       31      17.283333      50.333126

 Density error is 4569.471307524966
                          Error Threshold = 0.002835367713

       Energy                       Rydberg                            eV
   E_KohnSham              +24.879758731044             +338.506483607450
     E_Harris             -384.697811993593            -5234.082251245606
      E_Fermi               -3.396803949833              -46.215888706639

 PW ALGORITHM --------------- ION=   1  ELEC=  10--------------------------------
  K-point    CG iter num      Time(Sec)
        1      21.716667      59.160046
        2      21.966667      60.122445
        3      21.766667      60.882858
        4      22.100000      60.434702
        5      21.033333      57.595480
        6      21.150000      58.567132
        7      22.283333      61.192426
        8      20.633333      57.560233
        9      22.433333      62.253122
       10      20.850000      57.814541
       11      21.033333      59.711377
       12      21.416667      60.538204
       13      20.083333      55.585539
       14      22.066667      62.450421
       15      21.166667      58.962135
       16      21.866667      60.653177
       17      22.316667      62.583988
       18      19.833333      56.295293
       19      21.500000      60.401925
       20      20.100000      56.059574
       21      21.616667      59.791006
       22      20.183333      56.795678
       23      21.766667      58.930186
       24      21.200000      58.401349
       25      21.700000      60.085271
       26      19.900000      55.102987
       27      20.216667      55.254953
       28      20.083333      55.152133
       29      20.533333      57.036275
       30      20.250000      56.408431
       31      20.783333      57.611401

 Density error is 9835.778835021563
                          Error Threshold = 0.002835367713

       Energy                       Rydberg                            eV
   E_KohnSham             -377.894051759935            -5141.512344242045
     E_Harris             -250.238947706502            -3404.675550332453
      E_Fermi               -1.046923685083              -14.244127488292

 PW ALGORITHM --------------- ION=   1  ELEC=  11--------------------------------
  K-point    CG iter num      Time(Sec)
        1      80.833333     224.659458
        2      84.966667     235.005316
        3      88.866667     249.632558
        4      86.816667     242.776230
        5      81.266667     223.902153
        6      78.316667     215.090413
        7      86.500000     242.109887
        8      82.516667     379.341559
        9      80.983333     375.604852
       10      83.116667     230.729347
       11      82.116667     230.867723
       12      82.016667     227.343894
       13      80.000000     221.988948
       14      82.466667     231.780136
       15      81.850000     230.164624
       16      89.266667     253.680179
       17      82.333333     228.161754
       18      82.616667     227.918913
       19      81.300000     225.723269
       20      80.233333     222.631649
       21      82.200000     226.957903
       22      81.666667     225.256182
       23      83.516667     230.368244
       24      82.233333     226.713054
       25      79.600000     220.194619
       26      77.883333     216.252977
       27      79.016667     219.738029
       28      84.550000     453.496415
       29      82.150000     481.783045
       30      80.966667     453.915320
       31      79.200000     482.125066

 Density error is 22835.025547467281
                          Error Threshold = 0.002835367713

       Energy                       Rydberg                            eV
   E_KohnSham            -3875.290985006870           -52726.038804126001
     E_Harris            -7433.782844799657          -101141.804383925002
      E_Fermi              -95.286510042651            -1296.439479114279

 PW ALGORITHM --------------- ION=   1  ELEC=  12--------------------------------
  K-point    CG iter num      Time(Sec)
        1      48.883333     274.653095
        2      50.216667     289.291092
        3      50.350000     291.161853
        4      49.983333     305.276164
        5      49.333333     296.097103
        6      47.216667     254.954477
        7      52.050000     288.355802
        8      52.083333     294.661012
        9      51.200000     299.019966
       10      50.266667     300.482848
       11      51.700000     325.378940
       12      51.283333     317.239684
       13      51.083333     290.394196
       14      51.633333     283.001122
       15      52.366667     297.841269
       16      51.866667     300.663716
       17      50.433333     292.376739
       18      51.600000     317.348491
       19      51.866667     324.150610
       20      50.283333     309.000267
       21      52.216667     266.357502
       22      50.550000     138.894775
       23      50.216667     137.159735
       24      50.850000     136.532733
       25      51.533333     138.461832
       26      50.400000     137.429589
       27      50.783333     136.973905
       28      50.083333     135.657393
       29      50.300000     136.882845
       30      51.700000     140.787767
       31      48.816667     132.498312

 Density error is 15545.451971326263
                          Error Threshold = 0.002835367713

       Energy                       Rydberg                            eV
   E_KohnSham            -1791.892550722639           -24379.948893581906
     E_Harris            -4032.919157431156           -54870.680114422772
      E_Fermi              -52.516880926995             -714.528821794659

 PW ALGORITHM --------------- ION=   1  ELEC=  13--------------------------------
  K-point    CG iter num      Time(Sec)
        1      43.316667     119.822539
        2      48.516667     131.466106
        3      47.233333     128.156447
        4      47.566667     128.449604
        5      47.283333     127.370440
        6      43.316667     120.067824
        7      47.733333     128.895081
        8      48.483333     131.762541
        9      46.600000     125.561013
       10      47.566667     130.187829
       11      48.533333     131.987318
       12      48.683333     131.397811
       13      48.516667     131.465838
       14      47.350000     129.052027
       15      48.250000     183.066312
       16      47.800000     258.144671
       17      47.433333     297.313137
       18      47.766667     285.901945
       19      47.966667     265.376933
       20      46.016667     252.517013
       21      48.350000     266.820309
       22      46.200000     268.560475
       23      47.516667     300.383447
       24      48.966667     292.563949
       25      49.166667     272.741031
       26      44.766667     245.720025
       27      46.050000     269.059169
       28      46.633333     284.585426
       29      48.616667     265.680985
       30      46.233333     263.134908
       31      42.750000     259.207798

 Density error is 10282.812962801458
                          Error Threshold = 0.002835367713

       Energy                       Rydberg                            eV
   E_KohnSham             -973.842739666829           -13249.810215399493
     E_Harris            -1970.914062551304           -26815.661519026151
      E_Fermi              -24.959297361707             -339.588662195585

 PW ALGORITHM --------------- ION=   1  ELEC=  14--------------------------------
  K-point    CG iter num      Time(Sec)
        1      40.983333     231.273062
        2      41.283333     239.876997
        3      42.133333     247.193921
        4      41.933333     268.316010
        5      40.816667     216.740127
        6      41.483333     187.560791
        7      42.266667     238.796151
        8      39.433333     221.411247
        9      43.116667     199.331321
       10      41.516667     114.725278
       11      42.733333     233.277304
       12      43.433333     244.072735
       13      42.583333     237.613087
       14      44.600000     254.580750
       15      41.733333     238.052135
       16      41.900000     237.255586
       17      44.183333     246.828710
       18      42.116667     237.898168
       19      42.400000     235.454401
       20      42.050000     235.120937
       21      43.433333     243.200970
       22      42.016667     137.103921
       23      41.683333     117.395661
       24      43.066667     119.692810
       25      42.583333     162.346019
       26      41.616667     236.110989
       27      40.383333     228.126189
       28      41.216667     235.746337
       29      43.800000     248.043830
       30      40.550000     230.398578
       31      41.800000     237.914808

 Density error is 16180.628299390317
                          Error Threshold = 0.002835367713

       Energy                       Rydberg                            eV
   E_KohnSham             -397.177477109743            -5403.876805957079
     E_Harris            -1364.980474595061           -18571.512113237077
      E_Fermi              -16.558526483766             -225.290310663122

 PW ALGORITHM --------------- ION=   1  ELEC=  15--------------------------------
  K-point    CG iter num      Time(Sec)
        1      45.466667     256.958668
        2      47.466667     267.409221
        3      49.066667     275.379479
        4      46.050000     258.752193
        5      46.866667     264.503683
        6      45.733333     257.732498
        7      48.066667     269.095438
        8      45.683333     257.255787
        9      48.783333     276.082625
       10      47.166667     264.995627
       11      47.200000     265.592821
       12      46.516667     263.253218
       13      47.500000     267.063771
       14      49.050000     276.513508
       15      44.950000     254.005027
       16      47.166667     268.691564
       17      46.800000     264.156657
       18      45.533333     257.943326
       19      46.066667     259.700534
       20      46.783333     253.849897
       21      46.100000     258.986959
       22      45.950000     260.940667
       23      45.783333     259.761938
       24      47.633333     270.039181
       25      46.383333     264.021467
       26      46.066667     261.105069
       27      47.033333     263.433443
       28      46.566667     261.779509
       29      47.483333     265.593709
       30      46.950000     264.245469
       31      45.500000     259.396654

 Density error is 15839.397377334755
                          Error Threshold = 0.002835367713

       Energy                       Rydberg                            eV
   E_KohnSham             -650.508279180986            -8850.619193036178
     E_Harris            -1217.164217645506           -16560.368761691021
      E_Fermi              -14.605559904410             -198.718837180306

 PW ALGORITHM --------------- ION=   1  ELEC=  16--------------------------------
  K-point    CG iter num      Time(Sec)
        1      20.700000     123.960307
        2      24.383333     144.089743
        3      23.766667     140.312926
        4      25.583333     148.588166
        5      23.500000     135.104537
        6      22.783333     133.330541
        7      24.800000     144.939314
        8      23.816667     139.916346
        9      25.083333     143.638781
       10      23.350000     134.357590
       11      24.800000     140.655281
       12      24.133333     138.279712
       13      24.433333     137.701948
       14      24.700000     142.146998
       15      24.250000     139.847796
       16      23.783333     137.592481
       17      24.100000     135.933271
       18      22.633333     129.354948
       19      24.166667     138.743481
       20      24.350000     140.626360
       21      22.983333     132.838707
       22      23.083333     133.941624
       23      24.883333     134.910351
       24      23.733333      67.377145
       25      24.550000      70.914155
       26      22.516667      65.063555
       27      22.900000      65.181313
       28      24.200000      68.528316
       29      23.850000      67.636486
       30      24.333333      94.883156
       31      25.200000     143.460720

 Density error is 11036.832313995617
                          Error Threshold = 0.002835367713

       Energy                       Rydberg                            eV
   E_KohnSham              -39.010090059525             -530.759504302699
     E_Harris             -698.253358803917            -9500.224327371730
      E_Fermi               -7.637736911374             -103.916741819608

 PW ALGORITHM --------------- ION=   1  ELEC=  17--------------------------------
  K-point    CG iter num      Time(Sec)
        1      18.633333     105.588552
        2      22.466667     125.970717
        3      23.650000     131.518091
        4      23.033333     130.315059
        5      22.616667     125.430962
        6      23.200000     132.598129
        7      22.433333     124.234517
        8      22.900000     129.017823
        9      24.316667     135.517905
       10      23.733333     132.222878
       11      22.700000     128.897623
       12      24.666667     137.020594
       13      23.650000     133.549714
       14      24.300000     137.265875
       15      22.100000     124.789410
       16      23.350000     131.696312
       17      24.483333     137.493379
       18      21.833333     121.998820
       19      23.783333     132.097772
       20      21.116667     120.436816
       21      23.233333     130.205335
       22      22.433333     125.662680
       23      22.466667     124.565000
       24      23.633333     129.899205
       25      23.500000     131.457504
       26      21.466667     121.742360
       27      22.500000     127.576391
       28      22.366667     126.757126
       29      24.133333     135.193802
       30      20.850000     117.822394
       31      22.083333     123.170982

 Density error is 11410.393161476186
                          Error Threshold = 0.002835367713

       Energy                       Rydberg                            eV
   E_KohnSham            -3136.200313504278           -42670.194333044528
     E_Harris             -340.466963539306            -4632.290684892812
      E_Fermi               -1.935276122293              -26.330782466525

 PW ALGORITHM --------------- ION=   1  ELEC=  18--------------------------------
  K-point    CG iter num      Time(Sec)
        1      67.883333     380.446060
        2      71.400000     395.701049
        3      70.616667     390.178540
        4      70.683333     393.810045
        5      70.300000     391.666262
        6      66.550000     372.208822
        7      71.533333     400.934201
        8      71.300000     396.160362
        9      64.550000     354.608761
       10      69.800000     385.768370
       11      69.400000     382.192259
       12      68.700000     382.214526
       13      69.350000     382.484251
       14      63.666667     346.357503
       15      72.116667     403.302619
       16      71.216667     401.388328
       17      69.366667     387.317911
       18      69.700000     388.269457
       19      64.833333     350.204316
       20      66.966667     370.363387
       21      68.050000     379.097837
       22      69.766667     381.037749
       23      68.483333     377.300184
       24      70.350000     393.508159
       25      67.383333     374.103839
       26      67.450000     373.428850
       27      62.133333     340.447760
       28      70.533333     391.419610
       29      69.983333     388.536716
       30      66.800000     368.610159
       31      68.066667     375.558649

 Density error is 19823.375897412916
                          Error Threshold = 0.002835367713

       Energy                       Rydberg                            eV
   E_KohnSham             -992.805839799718           -13507.816428951342
     E_Harris            -4449.856436400493           -60543.402817021321
      E_Fermi              -55.595411430024             -756.414378102650

 PW ALGORITHM --------------- ION=   1  ELEC=  19--------------------------------
  K-point    CG iter num      Time(Sec)
        1      73.400000     407.485912
        2      76.600000     427.555715
        3      74.733333     412.803643
        4      74.483333     410.407221
        5      72.566667     401.830977
        6      65.250000     355.393727
        7      75.900000     422.163175
        8      73.500000     407.138384
        9      72.716667     404.789524
       10      71.583333     391.842436
       11      70.883333     391.785545
       12      71.233333     393.985565
       13      73.616667     406.759536
       14      70.150000     390.553394
       15      74.800000     416.613331
       16      74.000000     411.642687
       17      73.050000     403.742285
       18      71.416667     396.015213
       19      71.966667     397.572944
       20      64.683333     354.651102
       21      70.416667     389.816220
       22      72.083333     400.404116
       23      73.900000     408.016938
       24      74.983333     417.742884
       25      70.550000     388.748682
       26      65.700000     356.258180
       27      69.916667     382.630670
       28      72.900000     399.950876
       29      66.233333     363.053782
       30      64.283333     345.718250
       31      64.266667     353.173119

 Density error is 20040.747175950677
                          Error Threshold = 0.002835367713

       Energy                       Rydberg                            eV
   E_KohnSham             -554.662466109487            -7546.570005820912
     E_Harris            -4625.666520889479           -62935.421731932947
      E_Fermi              -58.661469708496             -798.130241089942

 PW ALGORITHM --------------- ION=   1  ELEC=  20--------------------------------
  K-point    CG iter num      Time(Sec)
        1      52.550000     288.190744
        2      54.316667     298.079499
        3      52.316667     286.945163
        4      53.033333     290.133575
        5      51.983333     284.432524
        6      48.600000     269.496297
        7      55.000000     302.009660
        8      50.950000     278.466359
        9      51.416667     284.766643
       10      51.700000     285.561509
       11      50.550000     276.304025
       12      52.383333     287.416629
       13      53.133333     291.956752
       14      51.550000     281.759032
       15      51.366667     282.204480
       16      52.416667     286.129835
       17      51.083333     281.833043
       18      50.166667     273.119833
       19      52.050000     284.558126
       20      48.250000     264.079787
       21      51.766667     281.039132
       22      51.133333     283.014717
       23      53.466667     296.875435
       24      52.333333     289.647634
       25      52.366667     288.672294
       26      49.033333     272.096062
       27      48.366667     267.943806
       28      51.366667     285.219175
       29      50.883333     280.577679
       30      48.916667     270.350699
       31      47.483333     262.845058

 Density error is 17077.540364670087
                          Error Threshold = 0.002835367713

       Energy                       Rydberg                            eV
   E_KohnSham            +1308.527612848860           +17803.431525082513
     E_Harris            -1591.232359630654           -21649.826932962067
      E_Fermi              -17.862913948552             -243.037412583991

 PW ALGORITHM --------------- ION=   1  ELEC=  21--------------------------------
  K-point    CG iter num      Time(Sec)
        1      55.433333     308.907396
        2      57.500000     319.868933
        3      62.200000     352.442311
        4      55.883333     309.336589
        5      55.416667     307.317447
        6      52.800000     295.231552
        7      58.133333     324.746979
        8      54.883333     315.436037
        9      54.416667     343.201001
       10      56.333333     338.455178
       11      57.783333     332.100023
       12      57.233333     327.775671
       13      53.633333     303.354663
       14      55.566667     301.781365
       15      55.066667     298.865846
       16      58.750000     330.942457
       17      55.433333     308.466868
       18      55.500000     310.011148
       19      56.666667     319.854373
       20      53.683333     308.506913
       21      56.716667     326.452035
       22      54.683333     320.130524
       23      57.333333     333.103761
       24      55.916667     327.320703
       25      56.850000     322.482997
       26      53.366667     304.881415
       27      54.450000     312.831740
       28      57.433333     338.555228
       29      56.066667     321.903477
       30      54.283333     312.864048
       31      52.650000     311.684075

 Density error is 17905.275828114405
                          Error Threshold = 0.002835367713

       Energy                       Rydberg                            eV
   E_KohnSham             +101.507623219755            +1381.082066225770
     E_Harris            -2521.140271502810           -34301.873149705236
      E_Fermi              -32.056171968646             -436.146594841462

 PW ALGORITHM --------------- ION=   1  ELEC=  22--------------------------------
  K-point    CG iter num      Time(Sec)
        1      37.833333     221.484895
        2      35.533333     218.990655
        3      38.500000     213.792366
        4      37.383333     214.899838
        5      37.533333     232.600437
        6      35.450000     199.024249
        7      34.466667     199.880563
        8      32.183333     184.531757
        9      36.750000     211.909632
       10      37.066667     231.353676
       11      37.650000     207.100113
       12      37.750000     215.228294
       13      37.733333     229.182721
       14      34.066667     195.365282
       15      33.083333     138.835314
       16      38.400000     105.982843
       17      37.516667     104.300955
       18      37.916667     105.947369
       19      38.250000     105.313408
       20      36.616667     101.804123
       21      39.833333     110.406870
       22      36.816667     102.507482
       23      37.483333     112.617993
       24      37.233333     142.343915
       25      38.600000     219.327634
       26      37.200000     208.622453
       27      37.216667     210.619531
       28      37.666667     211.929925
       29      37.550000     211.267850
       30      37.516667     210.394241
       31      36.750000     207.709909

 Density error is 8835.240544881824
                          Error Threshold = 0.002835367713

       Energy                       Rydberg                            eV
   E_KohnSham             +380.431716719816            +5176.039047311368
     E_Harris             -661.872441424520            -9005.236552544709
      E_Fermi               -5.765620361766              -78.445289424844

 PW ALGORITHM --------------- ION=   1  ELEC=  23--------------------------------
  K-point    CG iter num      Time(Sec)
        1      48.933333     275.517916
        2      52.266667     290.534318
        3      53.650000     299.204852
        4      51.483333     286.887399
        5      53.566667     297.796054
        6      53.450000     255.267883
        7      51.683333     142.497261
        8      50.866667     260.554368
        9      53.216667     289.853317
       10      54.750000     301.302726
       11      52.000000     293.281600
       12      51.433333     300.246864
       13      52.816667     317.051030
       14      54.266667     338.265379
       15      52.200000     307.958537
       16      54.133333     311.538947
       17      53.516667     303.558579
       18      53.200000     301.502242
       19      53.516667     296.490927
       20      52.550000     292.678036
       21      53.133333     295.565098
       22      52.350000     290.297009
       23      54.633333     302.579622
       24      53.800000     304.480406
       25      52.366667     305.612252
       26      52.150000     324.743794
       27      51.783333     330.197125
       28      52.683333     315.830512
       29      52.816667     302.144623
       30      52.200000     299.072778
       31      53.450000     300.879333

 Density error is 16879.981672275771
                          Error Threshold = 0.002835367713

       Energy                       Rydberg                            eV
   E_KohnSham             -182.038784397199            -2476.764724795396
     E_Harris            -2227.416214472071           -30305.552334410226
      E_Fermi              -28.384880940271             -386.196117839287

 PW ALGORITHM --------------- ION=   1  ELEC=  24--------------------------------
  K-point    CG iter num      Time(Sec)
        1      48.266667     267.476991
        2      46.233333     252.171708
        3      46.133333     251.784052
        4      47.583333     262.112909
        5      46.083333     251.455049
        6      44.016667     243.641742
        7      47.166667     218.849608
        8      46.966667     129.211555
        9      47.050000     129.161121
       10      46.783333     128.931284
       11      45.966667     126.331054
       12      46.016667     170.023235
       13      46.616667     209.606458
       14      45.900000     224.395372
       15      46.683333     262.069583
       16      47.533333     274.093210
       17      47.133333     263.874349
       18      43.866667     237.974332
       19      47.600000     268.536512
       20      45.116667     264.474672
       21      45.950000     278.136206
       22      45.466667     241.969829
       23      47.466667     263.429990
       24      46.033333     261.163190
       25      47.450000     273.498173
       26      43.766667     268.911544
       27      44.066667     236.013389
       28      45.833333     253.968461
       29      46.866667     265.893141
       30      44.633333     266.483575
       31      45.083333     279.078898

 Density error is 16074.276678552204
                          Error Threshold = 0.002835367713

       Energy                       Rydberg                            eV
   E_KohnSham            -2725.954645107093           -37088.515663024285
     E_Harris             -968.931283855165           -13182.986430885652
      E_Fermi              -10.416304496957             -141.721093261644

 PW ALGORITHM --------------- ION=   1  ELEC=  25--------------------------------
  K-point    CG iter num      Time(Sec)
        1      69.616667     415.405436
        2      73.666667     421.777363
        3      71.533333     403.984750
        4      73.000000     419.486216
        5      71.833333     414.085513
        6      69.833333     395.223481
        7      74.683333     424.832218
        8      71.250000     430.672006
        9      70.750000     400.881108
       10      66.233333     366.364666
       11      66.616667     367.357484
       12      70.566667     437.910122
       13      66.500000     372.281082
       14      73.600000     419.923518
       15      72.416667     416.011108
       16      72.366667     413.183296
       17      73.683333     352.758143
       18      71.166667     196.928851
       19      68.766667     188.352116
       20      71.116667     198.185840
       21      71.583333     198.332044
       22      69.133333     194.407065
       23      70.883333     198.489725
       24      70.816667     197.629251
       25      66.383333     185.155685
       26      70.716667     194.784340
       27      65.316667     177.904540
       28      71.783333     198.290104
       29      70.616667     195.913133
       30      69.983333     194.797084
       31      64.866667     177.848851

 Density error is 20240.075668775364
                          Error Threshold = 0.002835367713

       Energy                       Rydberg                            eV
   E_KohnSham             -175.774284001804            -2391.531824294772
     E_Harris            -4996.689033333887           -67983.441987452796
      E_Fermi              -65.513169775742             -891.352402991469

 PW ALGORITHM --------------- ION=   1  ELEC=  26--------------------------------
  K-point    CG iter num      Time(Sec)
        1      70.783333     199.858976
        2      71.050000     200.036582
        3      68.066667     192.133929
        4      66.750000     186.589907
        5      62.433333     170.209469
        6      61.366667     168.167137
        7      69.466667     194.533446
        8      66.216667     184.243486
        9      62.666667     174.171869
       10      62.650000     171.686266
       11      65.250000     181.063661
       12      62.400000     169.504570
       13      63.150000     172.794028
       14      62.250000     169.421591
       15      67.583333     188.057539
       16      68.700000     190.702919
       17      62.233333     168.912442
       18      61.716667     168.672709
       19      62.433333     168.929237
       20      60.533333     164.899637
       21      61.816667     168.034509
       22      62.050000     170.085365
       23      67.050000     186.229628
       24      66.283333     182.093140
       25      62.050000     167.335864
       26      60.300000     163.329623
       27      60.833333     166.164664
       28      62.533333     170.395644
       29      63.650000     173.411025
       30      59.750000     161.592574
       31      58.533333     160.834876

 Density error is 18994.597192820394
                          Error Threshold = 0.002835367713

       Energy                       Rydberg                            eV
   E_KohnSham            -1637.807226197984           -22283.510501867462
     E_Harris            -3495.783326484991           -47562.572213590181
      E_Fermi              -45.508153978664             -619.170199571197

 PW ALGORITHM --------------- ION=   1  ELEC=  27--------------------------------
  K-point    CG iter num      Time(Sec)
        1      58.400000     160.483142
        2      61.433333     250.960042
        3      60.333333     331.747469
        4      60.066667     330.567407
        5      58.833333     323.968829
        6      57.816667     319.510167
        7      63.000000     348.854025
        8      60.033333     329.057781
        9      59.433333     325.828747
       10      58.300000     321.378752
       11      60.083333     331.130095
       12      59.750000     330.605497
       13      59.616667     328.979149
       14      58.850000     324.396911
       15      60.400000     334.349561
       16      64.483333     360.463088
       17      59.916667     271.335906
       18      57.683333     155.608372
       19      58.866667     159.657150
       20      57.016667     298.286439
       21      58.916667     319.093043
       22      57.266667     312.570239
       23      59.233333     321.468233
       24      58.750000     317.955442
       25      58.816667     318.167639
       26      56.066667     304.379048
       27      56.983333     311.062395
       28      59.533333     328.153733
       29      60.566667     331.393309
       30      56.916667     308.513820
       31      55.516667     306.056071

 Density error is 18521.809482553708
                          Error Threshold = 0.002835367713

       Energy                       Rydberg                            eV
   E_KohnSham             -213.375403950265            -2903.121306775315
     E_Harris            -3098.256181524553           -42153.937932456247
      E_Fermi              -40.233355804018             -547.402888596012

 PW ALGORITHM --------------- ION=   1  ELEC=  28--------------------------------
  K-point    CG iter num      Time(Sec)
        1      46.933333     257.264920
        2      47.600000     256.035701
        3      46.950000     258.113715
        4      47.300000     256.203480
        5      47.266667     256.025897
        6      44.383333     244.693112
        7      47.683333     260.834567
        8      47.216667     257.020739
        9      48.450000     265.589668
       10      47.016667     257.860410
       11      48.183333     263.160023
       12      45.883333     251.920836
       13      45.833333     249.377905
       14      47.466667     259.512373
       15      47.016667     256.102610
       16      47.450000     259.656809
       17      48.166667     264.371763
       18      46.266667     256.085237
       19      47.600000     261.333999
       20      45.100000     249.973645
       21      46.750000     255.690361
       22      46.566667     254.944583
       23      47.000000     259.081709
       24      46.616667     258.914624
       25      46.300000     258.702345
       26      46.166667     254.982053
       27      46.400000     256.484050
       28      47.050000     259.614115
       29      47.983333     264.443352
       30      44.566667     246.520818
       31      43.500000     242.864968

 Density error is 14683.031674220971
                          Error Threshold = 0.002835367713

       Energy                       Rydberg                            eV
   E_KohnSham            +1718.242248854026           +23377.885128748720
     E_Harris            -1340.103750227460           -18233.046914262246
      E_Fermi              -16.092371413824             -218.947945560317

 PW ALGORITHM --------------- ION=   1  ELEC=  29--------------------------------
  K-point    CG iter num      Time(Sec)
        1      52.616667     289.457615
        2      53.783333     296.071874
        3      54.383333     302.916571
        4      54.316667     299.445424
        5      53.700000     297.085731
        6      53.366667     296.827958
        7      52.200000     288.670361
        8      52.966667     293.246675
        9      54.466667     302.733791
       10      52.533333     293.498632
       11      54.083333     301.125160
       12      53.283333     297.480561
       13      52.583333     293.309181
       14      53.766667     298.757045
       15      52.533333     289.814337
       16      55.733333     308.280212
       17      53.866667     299.038638
       18      53.616667     298.136948
       19      53.216667     295.543260
       20      49.883333     278.032164
       21      52.666667     293.497093
       22      53.233333     296.275850
       23      55.366667     306.900797
       24      53.300000     296.572087
       25      53.600000     298.275504
       26      53.166667     297.138364
       27      53.216667     298.436390
       28      54.583333     303.660728
       29      52.983333     294.473182
       30      52.016667     289.496759
       31      52.333333     293.313049

 Density error is 15015.085542058894
                          Error Threshold = 0.002835367713

       Energy                       Rydberg                            eV
   E_KohnSham            +1231.473257504614           +16755.053236684013
     E_Harris            -1876.778682010966           -25534.883960279236
      E_Fermi              -23.626870908029             -321.460070259623

 PW ALGORITHM --------------- ION=   1  ELEC=  30--------------------------------
  K-point    CG iter num      Time(Sec)
        1      55.833333     311.227037
        2      57.633333     317.934892
        3      57.083333     316.386125
        4      54.583333     299.729172
        5      54.816667     301.708357
        6      51.750000     287.181687
        7      57.450000     317.372163
        8      56.833333     313.681013
        9      53.333333     295.134260
       10      54.333333     298.673753
       11      54.500000     297.649026
       12      53.050000     288.351146
       13      55.033333     305.386196
       14      55.466667     305.773503
       15      56.750000     314.386963
       16      57.716667     322.066375
       17      53.833333     298.166530
       18      55.750000     306.600511
       19      55.400000     307.368317
       20      51.850000     286.226053
       21      55.566667     308.045716
       22      53.933333     300.320662
       23      54.750000     302.712508
       24      54.716667     301.055327
       25      55.633333     308.008654
       26      51.383333     284.135043
       27      51.533333     284.322999
       28      55.383333     308.679433
       29      53.900000     299.901168
       30      52.883333     294.791349
       31      51.633333     286.759158

 Density error is 17510.916996467986
                          Error Threshold = 0.002835367713

       Energy                       Rydberg                            eV
   E_KohnSham             +281.669715794413            +3832.313088844615
     E_Harris            -2059.418392311572           -28019.824701436777
      E_Fermi              -25.718993274155             -349.924855352183

 PW ALGORITHM --------------- ION=   1  ELEC=  31--------------------------------
  K-point    CG iter num      Time(Sec)
        1      38.600000     216.514132
        2      38.416667     214.637161
        3      38.800000     217.099466
        4      37.750000     220.234420
        5      39.033333     211.994124
        6      37.200000     217.945397
        7      38.383333     240.336936
        8      38.366667     223.284535
        9      36.950000     212.173134
       10      37.350000     224.200447
       11      37.900000     243.536931
       12      38.166667     215.445701
       13      38.000000     218.554992
       14      37.733333     227.025923
       15      38.666667     244.797671
       16      38.650000     214.076758
       17      37.733333     218.529492
       18      37.416667     229.787992
       19      38.650000     238.589681
       20      36.666667     201.229183
       21      37.383333     219.024574
       22      38.416667     243.440119
       23      38.066667     225.495868
       24      38.216667     218.899125
       25      37.783333     221.741357
       26      36.566667     227.942746
       27      36.533333     202.689035
       28      38.416667     220.602556
       29      37.933333     237.349923
[...]
   E_KohnSham            +1217.899190551545           +16570.368581088773
     E_Harris            -2447.471744113558           -33299.561413942341
      E_Fermi              -31.668541950784             -430.872617882702

 PW ALGORITHM --------------- ION=   1  ELEC=  66--------------------------------
  K-point    CG iter num      Time(Sec)
        1      53.650000     147.838245
        2      57.783333     161.476891
        3      56.400000     156.292208
        4      55.550000     154.444251
        5      54.333333     149.752410
        6      52.000000     143.365083
        7      58.750000     160.583650
        8      55.250000     154.333296
        9      54.450000     149.224864
       10      54.350000     149.796152
       11      54.316667     149.619346
       12      55.950000     154.328924
       13      54.133333     149.762446
       14      53.316667     145.722713
       15      56.250000     156.217344
       16      57.350000     157.201424
       17      54.366667     150.250529
       18      53.683333     147.645543
       19      54.233333     149.209113
       20      52.533333     145.064723
       21      54.300000     148.967343
       22      52.816667     145.782987
       23      55.716667     153.230679
       24      54.600000     150.651509
       25      54.066667     148.914114
       26      51.300000     141.927792
       27      50.616667     139.204560
       28      54.066667     150.594536
       29      54.466667     150.612107
       30      51.483333     142.882502
       31      51.383333     142.187667

 Density error is 17658.470722553015
                          Error Threshold = 0.002835367713

       Energy                       Rydberg                            eV
   E_KohnSham             +101.438817078709            +1380.145910650160
     E_Harris            -2300.108142661612           -31294.576756394810
      E_Fermi              -29.591585671766             -402.614177991178

 PW ALGORITHM --------------- ION=   1  ELEC=  67--------------------------------
  K-point    CG iter num      Time(Sec)
        1      55.816667     154.770011
        2      57.866667     158.621881
        3      58.033333     162.126364
        4      55.783333     154.039174
        5      54.500000     149.328232
        6      51.316667     143.461392
        7      57.683333     158.499371
        8      56.900000     157.179792
        9      56.100000     153.773455
       10      54.016667     148.709955
       11      55.200000     150.214721
       12      54.966667     152.139448
       13      55.233333     152.573182
       14      55.100000     152.964443
       15      57.300000     159.794137
       16      56.433333     157.847620
       17      55.033333     152.497666
       18      54.066667     149.818764
       19      54.916667     150.968957
       20      52.433333     146.278005
       21      54.116667     149.424135
       22      53.250000     148.214518
       23      55.900000     156.334047
       24      54.083333     150.620075
       25      54.866667     153.383149
       26      52.200000     145.235396
       27      52.483333     145.720087
       28      56.583333     156.344116
       29      56.216667     155.964688
       30      52.133333     144.359026
       31      52.233333     145.640751

 Density error is 17751.024819279079
                          Error Threshold = 0.002835367713

       Energy                       Rydberg                            eV
   E_KohnSham            +1375.289014120829           +18711.766988845735
     E_Harris            -2478.272643302341           -33718.629146433370
      E_Fermi              -32.140975218632             -437.300402250189

 PW ALGORITHM --------------- ION=   1  ELEC=  68--------------------------------
  K-point    CG iter num      Time(Sec)
        1      58.000000     160.954686
        2      58.533333     162.690769
        3      57.066667     157.551518
        4      58.433333     162.340753
        5      57.116667     157.123091
        6      54.083333     150.099993
        7      58.933333     164.304789
        8      56.333333     154.853925
        9      55.833333     154.889798
       10      55.966667     154.161479
       11      54.616667     150.845253
       12      56.700000     157.676589
       13      56.383333     155.177728
       14      55.683333     155.298793
       15      57.100000     158.104101
       16      57.550000     160.490863
       17      56.516667     155.394304
       18      55.466667     154.008453
       19      55.216667     150.912886
       20      53.900000     149.501015
       21      56.033333     154.416576
       22      55.016667     152.730190
       23      58.816667     163.159337
       24      56.916667     157.573650
       25      56.266667     154.378305
       26      54.133333     148.710432
       27      54.416667     150.490060
       28      56.050000     153.277832
       29      55.483333     154.333245
       30      52.966667     144.991548
       31      53.316667     148.384105

 Density error is 17888.906175299097
                          Error Threshold = 0.002835367713

       Energy                       Rydberg                            eV
   E_KohnSham            -1307.290868642240           -17786.604756903980
     E_Harris            -2622.764175283684           -35684.537294128866
      E_Fermi              -34.165179233866             -464.841110771855

 PW ALGORITHM --------------- ION=   1  ELEC=  69--------------------------------
  K-point    CG iter num      Time(Sec)
        1      51.266667     142.321316
        2      54.333333     150.111697
        3      55.716667     152.192160
        4      54.183333     149.012106
        5      53.383333     145.977467
        6      48.600000     134.614710
        7      53.633333     148.413782
        8      52.800000     145.313639
        9      53.600000     147.736751
       10      51.100000     141.479005
       11      53.083333     145.962485
       12      54.800000     150.330692
       13      52.800000     145.516663
       14      54.950000     151.287015
       15      53.133333     146.570365
       16      56.100000     154.077586
       17      53.400000     146.928926
       18      51.916667     144.094320
       19      53.516667     146.721731
       20      51.216667     141.515306
       21      53.916667     147.829028
       22      51.533333     143.088963
       23      54.850000     152.051876
       24      53.000000     144.828261
       25      52.850000     146.341629
       26      51.216667     140.713738
       27      51.300000     142.657160
       28      51.250000     140.620481
       29      52.983333     146.061794
       30      50.266667     138.510100
       31      50.266667     138.413771

 Density error is 17829.817640670481
                          Error Threshold = 0.002835367713

       Energy                       Rydberg                            eV
   E_KohnSham             +112.347875350006            +1528.571262953822
     E_Harris            -2580.093095666104           -35103.967471518125
      E_Fermi              -33.587400477241             -456.980027498394

 PW ALGORITHM --------------- ION=   1  ELEC=  70--------------------------------
  K-point    CG iter num      Time(Sec)
        1      56.483333     156.413430
        2      58.883333     162.539450
        3      58.183333     161.315103
        4      57.683333     158.018555
        5      58.050000     159.002249
        6      55.700000     153.180801
        7      57.883333     160.856120
        8      57.683333     159.012060
        9      57.550000     159.491455
       10      57.483333     158.336775
       11      58.250000     161.259205
       12      57.366667     156.999461
       13      57.900000     159.127156
       14      56.783333     157.820229
       15      59.166667     164.185797
       16      57.750000     159.337361
       17      57.150000     157.733267
       18      55.600000     153.734599
       19      56.916667     156.747733
       20      54.833333     151.647407
       21      55.516667     152.797752
       22      55.450000     154.659405
       23      57.583333     159.869727
       24      56.116667     154.420800
       25      57.033333     158.279889
       26      54.816667     153.061571
       27      54.683333     151.527536
       28      57.300000     157.626521
       29      56.400000     154.972187
       30      54.250000     149.647340
       31      55.916667     155.294603

 Density error is 17934.104641998267
                          Error Threshold = 0.002835367713

       Energy                       Rydberg                            eV
   E_KohnSham             +169.157755011946            +2301.509329050522
     E_Harris            -2775.512399408849           -37762.783501612175
      E_Fermi              -36.350319869123             -494.571474342690

 PW ALGORITHM --------------- ION=   1  ELEC=  71--------------------------------
  K-point    CG iter num      Time(Sec)
        1      56.166667     154.929601
        2      57.866667     160.470059
        3      57.266667     158.605026
        4      57.133333     157.843849
        5      55.716667     153.030014
        6      54.000000     148.946585
        7      57.800000     160.720528
        8      55.900000     154.816284
        9      55.383333     152.803643
       10      55.583333     153.171617
       11      54.816667     152.448549
       12      56.233333     155.376297
       13      54.700000     151.059545
       14      55.783333     154.474483
       15      55.283333     152.723918
       16      57.783333     160.192049
       17      55.416667     152.380332
       18      54.333333     150.203799
       19      54.983333     150.571047
       20      52.366667     144.619998
       21      54.966667     152.076716
       22      54.083333     149.751534
       23      56.533333     156.535491
       24      56.416667     154.636670
       25      55.650000     153.560738
       26      52.933333     145.613782
       27      51.966667     142.635459
       28      55.766667     153.481728
       29      55.266667     152.282463
       30      53.200000     146.361999
       31      53.950000     148.546500

 Density error is 17745.845945754125
                          Error Threshold = 0.002835367713

       Energy                       Rydberg                            eV
   E_KohnSham            -1405.982044933085           -19129.367096781993
     E_Harris            -2454.136131264025           -33390.235052866687
      E_Fermi              -31.800045779691             -432.661819264645

 PW ALGORITHM --------------- ION=   1  ELEC=  72--------------------------------
  K-point    CG iter num      Time(Sec)
        1      50.750000     140.963351
        2      53.783333     147.271455
        3      56.000000     153.656732
        4      55.883333     152.853460
        5      53.466667     146.724621
        6      49.400000     136.324676
        7      54.500000     150.511225
        8      53.616667     147.349876
        9      55.033333     150.411493
       10      52.450000     143.945527
       11      54.150000     149.767822
       12      54.050000     149.560754
       13      53.366667     146.785274
       14      54.033333     147.972207
       15      56.033333     155.280798
       16      55.400000     156.362833
       17      55.400000     152.759921
       18      52.600000     145.139523
       19      52.083333     143.964991
       20      52.116667     142.745125
       21      53.600000     146.718566
       22      51.883333     143.636850
       23      53.866667     146.956988
       24      52.683333     145.698545
       25      53.666667     145.977397
       26      50.616667     139.028158
       27      50.616667     138.190112
       28      52.116667     142.812207
       29      53.816667     147.403338
       30      51.600000     142.296507
       31      48.766667     135.050659

 Density error is 17872.315807392268
                          Error Threshold = 0.002835367713

       Energy                       Rydberg                            eV
   E_KohnSham             +131.103973935294            +1783.761075963478
     E_Harris            -2650.480750797966           -36061.640650170390
      E_Fermi              -34.586412022484             -470.572276881482

 PW ALGORITHM --------------- ION=   1  ELEC=  73--------------------------------
  K-point    CG iter num      Time(Sec)
        1      58.700000     162.051260
        2      60.183333     166.644921
        3      59.433333     164.120015
        4      57.966667     159.968775
        5      57.200000     156.871727
        6      56.250000     156.015829
        7      58.816667     161.714167
        8      60.000000     165.727487
        9      58.016667     158.821690
       10      58.083333     160.296071
       11      56.833333     155.158539
       12      57.900000     158.748661
       13      57.783333     158.161744
       14      57.500000     157.149520
       15      60.133333     163.389224
       16      59.416667     162.672240
       17      57.833333     158.569303
       18      56.216667     155.700991
       19      57.750000     157.304448
       20      55.150000     151.451053
       21      56.033333     302.491309
       22      56.033333     311.010274
       23      58.000000     320.771733
       24      57.900000     321.171364
       25      58.383333     323.614226
       26      54.616667     303.491964
       27      55.316667     308.618517
       28      57.533333     319.961205
       29      56.533333     314.961601
       30      56.433333     311.800962
       31      56.683333     314.250196

 Density error is 17991.099117050482
                          Error Threshold = 0.002835367713

       Energy                       Rydberg                            eV
   E_KohnSham            +1445.281818242242           +19664.067943894843
     E_Harris            -2842.747379759105           -38677.562339293698
      E_Fermi              -37.288365798705             -507.334243970712

 PW ALGORITHM --------------- ION=   1  ELEC=  74--------------------------------
  K-point    CG iter num      Time(Sec)
        1      57.600000     319.779196
        2      58.033333     322.899643
        3      58.450000     327.425319
        4      56.750000     315.258321
        5      56.383333     311.783508
        6      53.350000     297.012619
        7      62.000000     346.686020
        8      57.133333     311.653050
        9      56.250000     309.558486
       10      56.033333     308.395481
       11      56.533333     310.659218
       12      55.550000     306.476940
       13      56.066667     309.653630
       14      55.716667     307.244208
       15      57.133333     313.582736
       16      56.216667     311.555571
       17      55.483333     306.669725
       18      54.550000     303.732564
       19      54.583333     301.962114
       20      53.433333     295.743291
       21      55.550000     307.370261
       22      54.366667     302.082361
       23      58.000000     321.569959
       24      56.250000     311.775027
       25      55.800000     309.909331
       26      54.116667     300.809596
       27      53.133333     297.038377
       28      55.050000     306.063740
       29      57.083333     316.377205
       30      53.383333     294.796025
       31      53.200000     294.513748

 Density error is 17776.995759840018
                          Error Threshold = 0.002835367713

       Energy                       Rydberg                            eV
   E_KohnSham            +1232.381910780104           +16767.416098737038
     E_Harris            -2512.239908250731           -34180.777495207156
      E_Fermi              -32.643134065326             -444.132623866343

 PW ALGORITHM --------------- ION=   1  ELEC=  75--------------------------------
  K-point    CG iter num      Time(Sec)
        1      54.766667     304.703095
        2      56.650000     317.121243
        3      55.600000     309.792657
        4      56.300000     311.905438
        5      54.000000     298.869586
        6      52.216667     288.219090
        7      58.400000     322.306764
        8      55.966667     309.264275
        9      54.283333     299.795206
       10      55.000000     304.039069
       11      54.900000     304.075716
       12      54.300000     300.985929
       13      54.916667     303.222350
       14      54.150000     297.913556
       15      55.416667     307.036932
       16      56.983333     316.369309
       17      55.750000     309.098423
       18      53.700000     295.581974
       19      53.216667     294.134994
       20      52.716667     290.571587
       21      55.150000     303.155305
       22      54.266667     300.507369
       23      56.416667     312.872598
       24      55.183333     305.321922
       25      53.583333     296.525492
       26      53.266667     295.168302
       27      52.733333     229.724944
       28      54.933333     150.420614
       29      55.016667     150.911729
       30      52.333333     144.701975
       31      50.500000     138.537340

 Density error is 17660.848520074123
                          Error Threshold = 0.002835367713

       Energy                       Rydberg                            eV
   E_KohnSham              +56.863068583637             +773.661738502256
     E_Harris            -2342.958875051680           -31877.590880372889
      E_Fermi              -30.239799437876             -411.433578732312

 PW ALGORITHM --------------- ION=   1  ELEC=  76--------------------------------
  K-point    CG iter num      Time(Sec)
        1      57.200000     157.006068
        2      59.300000     163.366253
        3      56.433333     154.872233
        4      58.300000     161.184725
        5      55.266667     153.621232
        6      50.800000     140.721570
        7      57.550000     160.217315
        8      56.616667     156.665057
        9      56.133333     155.822735
       10      55.600000     152.094627
       11      55.516667     151.771675
       12      54.416667     149.547744
       13      56.850000     156.762301
       14      55.633333     152.495649
       15      58.700000     162.208784
       16      57.100000     157.747699
       17      54.350000     149.602492
       18      53.416667     147.376668
       19      54.583333     148.158467
       20      52.266667     143.500721
       21      54.316667     149.431563
       22      51.300000     140.839770
       23      56.766667     156.234880
       24      54.150000     148.955662
       25      55.050000     150.362943
       26      53.000000     145.097156
       27      52.900000     145.561472
       28      56.350000     154.230640
       29      54.500000     149.101356
       30      53.183333     144.158486
       31      52.766667     144.462527

 Density error is 17794.868755733987
                          Error Threshold = 0.002835367713

       Energy                       Rydberg                            eV
   E_KohnSham            +1353.604898168632           +18416.739455803156
     E_Harris            -2533.765992585965           -34473.654897794877
      E_Fermi              -32.952775775525             -448.345515463512

 PW ALGORITHM --------------- ION=   1  ELEC=  77--------------------------------
  K-point    CG iter num      Time(Sec)
        1      57.066667     157.931699
        2      57.716667     158.715832
        3      58.500000     160.934749
        4      57.150000     157.450066
        5      56.666667     155.749973
        6      53.483333     146.725689
        7      59.383333     163.061894
        8      57.483333     156.665659
