 *********************************************************
 *                                                       *
 *                  WELCOME TO ABACUS v3.0               *
 *                                                       *
 *            'Atomic-orbital Based Ab-initio            *
 *                  Computation at UStc'                 *
 *                                                       *
 *          Website: http://abacus.ustc.edu.cn/          *
 *                                                       *
 *********************************************************
 Wed Dec 28 12:30:01 2022
 MAKE THE DIR         : OUT.blpstest/
Notice: symbol 'Li_locpsp' is not an element symbol!!!! set the covalent radius to be 0.
 UNIFORM GRID DIM     : 27 * 27 * 27
 UNIFORM GRID DIM(BIG): 27 * 27 * 27
func,idXC_GGA_X_PBE 101
func,idXC_GGA_C_PBE 130
 DONE(0.107701   SEC) : SETUP UNITCELL
 DONE(0.161053   SEC) : SYMMETRY
 DONE(0.511804   SEC) : INIT K-POINTS
 ---------------------------------------------------------
 Self-consistent calculations for electrons
 ---------------------------------------------------------
 SPIN    KPOINTS         PROCESSORS  
 1       256             1           
 ---------------------------------------------------------
 Use plane wave basis
 ---------------------------------------------------------
 ELEMENT NATOM       XC          
 Li      1           
 ---------------------------------------------------------
 Initial plane wave basis and FFT box
 ---------------------------------------------------------
 DONE(0.574613   SEC) : INIT PLANEWAVE
 MEMORY FOR PSI (MB)  : 17.6367
 DONE(0.587606   SEC) : LOCAL POTENTIAL
 DONE(0.587651   SEC) : NON-LOCAL POTENTIAL
 DONE(0.587728   SEC) : INIT BASIS
 START CHARGE      : atomic
 DONE(0.632713   SEC) : INIT SCF
 ITER   ETOT(eV)       EDIFF(eV)      DRHO       TIME(s)    
 CG1    -7.442019e+00  0.000000e+00   1.019e-02  1.410e+01  
 CG2    -7.521572e+00  -7.955287e-02  1.057e-03  6.592e+00  
 CG3    -7.522219e+00  -6.472697e-04  1.307e-07  6.727e+00  
 CG4    -7.522247e+00  -2.762389e-05  5.628e-08  1.264e+01  
 CG5    -7.522247e+00  -3.491715e-07  1.895e-09  7.740e+00  
 CG6    -7.522247e+00  -1.870327e-09  1.168e-10  8.207e+00  

  |CLASS_NAME---------|NAME---------------|TIME(Sec)-----|CALLS----|AVG------|PER%-------
                       total               56.663         17        3.3       1e+02     %
   Driver              driver_line         56.652         1         57        1e+02     %
   ESolver_KS_PW       Run                 56.064         1         56        99        %
   Potential           update_from_charge  0.20687        7         0.03      0.37      %
   Potential           cal_v_eff           0.20585        7         0.029     0.36      %
   PotXC               cal_v_eff           0.18916        7         0.027     0.33      %
   XC_Functional       v_xc                28.562         4         7.1       50        %
   XC_Functional       v_xc_libxc          0.18867        7         0.027     0.33      %
   HSolverPW           solve               55.789         6         9.3       98        %
   DiagoIterAssist     diagH_subspace      10.829         1536      0.0071    19        %
   OperatorPW          hPsi                52.44          32684     0.0016    93        %
   Operator            EkineticPW          0.17041        32684     5.2e-06   0.3       %
   Operator            VeffPW              52.092         32684     0.0016    92        %
   PW_Basis_K          recip2real          26.018         39758     0.00065   46        %
   PW_Basis_K          gathers_scatterp    1.7132         39758     4.3e-05   3         %
   PW_Basis_K          real2recip          24.319         38828     0.00063   43        %
   PW_Basis_K          gatherp_scatters    0.44984        38828     1.2e-05   0.79      %
   DiagoCG             diag_once           43.799         1536      0.029     77        %
   ElecStatePW         psiToRho            0.68942        6         0.11      1.2       %
 ----------------------------------------------------------------------------------------

 START  Time  : Wed Dec 28 12:30:01 2022
 FINISH Time  : Wed Dec 28 12:30:58 2022
 TOTAL  Time  : 57
 SEE INFORMATION IN : OUT.blpstest/
