 *********************************************************
 *                                                       *
 *                  WELCOME TO ABACUS v3.0               *
 *                                                       *
 *            'Atomic-orbital Based Ab-initio            *
 *                  Computation at UStc'                 *
 *                                                       *
 *          Website: http://abacus.ustc.edu.cn/          *
 *                                                       *
 *********************************************************
 Mon Jul 24 14:55:38 2023
 MAKE THE DIR         : OUT.blpstest/
Notice: symbol 'In_locpsp' is not an element symbol!!!! set the covalent radius to be 0.
Notice: symbol 'P_locpsp' is not an element symbol!!!! set the covalent radius to be 0.
 UNIFORM GRID DIM     : 40 * 40 * 40
 UNIFORM GRID DIM(BIG): 40 * 40 * 40
func,idXC_GGA_X_PBE 101
func,idXC_GGA_C_PBE 130
 DONE(0.224013   SEC) : SETUP UNITCELL
 DONE(0.266895   SEC) : SYMMETRY
 DONE(0.506718   SEC) : INIT K-POINTS
 ---------------------------------------------------------
 Self-consistent calculations for electrons
 ---------------------------------------------------------
 SPIN    KPOINTS         PROCESSORS  
 1       256             1           
 ---------------------------------------------------------
 Use plane wave basis
 ---------------------------------------------------------
 ELEMENT NATOM       XC          
 In      1           
 P       1           
 ---------------------------------------------------------
 Initial plane wave basis and FFT box
 ---------------------------------------------------------
 DONE(0.667594   SEC) : INIT PLANEWAVE
 MEMORY FOR PSI (MB)  : 99.5625
 DONE(0.720322   SEC) : LOCAL POTENTIAL
 DONE(0.720395   SEC) : NON-LOCAL POTENTIAL
 DONE(0.720517   SEC) : INIT BASIS
 START CHARGE      : atomic
 DONE(0.851508   SEC) : INIT SCF
 ITER   ETOT(eV)       EDIFF(eV)      DRHO       TIME(s)    
 CG1    -2.195357e+02  0.000000e+00   4.542e+00  1.043e+02  
 CG2    -2.338602e+02  -1.432448e+01  6.984e-01  5.414e+01  
 CG3    -2.360595e+02  -2.199293e+00  1.978e-02  4.237e+01  
 CG4    -2.360938e+02  -3.431847e-02  8.628e-04  4.607e+01  
 CG5    -2.360985e+02  -4.640643e-03  1.955e-05  3.580e+01  
 CG6    -2.360985e+02  -7.763958e-05  2.338e-06  4.027e+01  
 CG7    -2.360985e+02  -6.668505e-06  1.021e-08  3.169e+01  
 CG8    -2.360985e+02  -2.845564e-07  1.012e-08  6.334e+01  
 CG9    -2.360985e+02  -9.268552e-09  6.511e-10  3.821e+01  

  |CLASS_NAME---------|NAME---------------|TIME(Sec)-----|CALLS----|AVG------|PER%-------
                       total               457.06         17        27        1e+02     %
   Driver              driver_line         457.05         1         4.6e+02   1e+02     %
   PW_Basis            setuptransform      0.20271        1         0.2       0.044     %
   PW_Basis_K          setuptransform      0.12299        1         0.12      0.027     %
   ESolver_KS_PW       Run                 456.31         1         4.6e+02   1e+02     %
   PW_Basis            recip2real          0.19576        62        0.0032    0.043     %
   Potential           update_from_charge  1.1125         10        0.11      0.24      %
   Potential           cal_v_eff           1.1103         10        0.11      0.24      %
   PW_Basis            real2recip          0.28465        98        0.0029    0.062     %
   PotXC               cal_v_eff           1.0203         10        0.1       0.22      %
   XC_Functional       v_xc                252.3          5         50        55        %
   XC_Functional       v_xc_libxc          1.012          10        0.1       0.22      %
   HSolverPW           solve               454.88         9         51        1e+02     %
   DiagoIterAssist     diagH_subspace      87.239         2304      0.038     19        %
   OperatorPW          hPsi                402.38         78762     0.0051    88        %
   Operator            EkineticPW          2.2205         78762     2.8e-05   0.49      %
   Operator            VeffPW              399.14         78762     0.0051    87        %
   PW_Basis_K          recip2real          206.75         106411    0.0019    45        %
   PW_Basis_K          gathers_scatterp    25.812         106411    0.00024   5.6       %
   PW_Basis_K          real2recip          152.94         97194     0.0016    33        %
   PW_Basis_K          gatherp_scatters    9.5184         97194     9.8e-05   2.1       %
   Operator            NonlocalPW          0.15433        78762     2e-06     0.034     %
   DiagoIterAssist     LAPACK_subspace     0.46976        2304      0.0002    0.1       %
   DiagoCG             diag_once           343.48         2304      0.15      75        %
   ElecStatePW         psiToRho            22.116         9         2.5       4.8       %
   Charge              mix_rho             0.1294         8         0.016     0.028     %
 ----------------------------------------------------------------------------------------

 START  Time  : Mon Jul 24 14:55:38 2023
 FINISH Time  : Mon Jul 24 15:03:15 2023
 TOTAL  Time  : 4.6e+02
 SEE INFORMATION IN : OUT.blpstest/
