 *********************************************************
 *                                                       *
 *                  WELCOME TO ABACUS v3.0               *
 *                                                       *
 *            'Atomic-orbital Based Ab-initio            *
 *                  Computation at UStc'                 *
 *                                                       *
 *          Website: http://abacus.ustc.edu.cn/          *
 *                                                       *
 *********************************************************
 Tue May  2 12:51:28 2023
 MAKE THE DIR         : OUT.blpstest/
Notice: symbol 'mg_locpsp' is not an element symbol!!!! set the covalent radius to be 0.
 UNIFORM GRID DIM     : 30 * 30 * 30
 UNIFORM GRID DIM(BIG): 30 * 30 * 30
func,idXC_GGA_X_PBE 101
func,idXC_GGA_C_PBE 130
 DONE(0.180731   SEC) : SETUP UNITCELL
 DONE(0.239943   SEC) : SYMMETRY
 DONE(0.240832   SEC) : INIT K-POINTS
 ---------------------------------------------------------
 Self-consistent calculations for electrons
 ---------------------------------------------------------
 SPIN    KPOINTS         PROCESSORS  
 1       1               1           
 ---------------------------------------------------------
 Use plane wave basis
 ---------------------------------------------------------
 ELEMENT NATOM       XC          
 Mg      1           
 ---------------------------------------------------------
 Initial plane wave basis and FFT box
 ---------------------------------------------------------
 DONE(0.243359   SEC) : INIT BASIS
 DONE(0.243426   SEC) : INIT PHI
 DONE(0.281491   SEC) : LOCAL POTENTIAL
 DONE(0.281591   SEC) : NON-LOCAL POTENTIAL
 START CHARGE      : atomic
 DONE(0.404681   SEC) : INIT POTENTIAL
 DONE(0.405027   SEC) : INIT OPTIMIZATION
Default type: double
 DONE(0.407038   SEC) : INIT KEDF
======================== Running OFDFT ========================
Iter        Etot(Ha)          Theta      PotNorm     deltaE(Ha)
0     -8.336738299155e-01   2.000e-01   9.404e-02   -8.337e-01  
1     -8.761014760662e-01   1.129e-01   5.384e-02   -4.243e-02  
2     -8.779518609082e-01   1.633e-02   1.125e-02   -1.850e-03  
3     -8.780407355798e-01   6.225e-03   3.027e-03   -8.887e-05  
4     -8.780453155656e-01   1.023e-03   2.570e-04   -4.580e-06  
5     -8.780453583543e-01   8.936e-05   7.935e-05   -4.279e-08  
6     -8.780453645776e-01   5.577e-05   6.081e-06   -6.223e-09  

  |CLASS_NAME---------|NAME---------------|TIME(Sec)-----|CALLS----|AVG------|PER%-------
                       total               14.1           21        0.67      1e+02     %
   Driver              driver_line         14.073         1         14        1e+02     %
   PW_Basis            setuptransform      0.13743        1         0.14      0.97      %
   PW_Basis            recip2real          2.8229         1997      0.0014    20        %
   PW_Basis            gathers_scatterp    0.34051        1997      0.00017   2.4       %
   Potential           update_from_charge  8.2288         154       0.053     58        %
   Potential           cal_v_eff           8.2239         154       0.053     58        %
   H_Hartree_pw        v_hartree           0.7084         154       0.0046    5         %
   PW_Basis            real2recip          3.1658         1997      0.0016    22        %
   PW_Basis            gatherp_scatters    0.3058         1997      0.00015   2.2       %
   PotXC               cal_v_eff           7.468          154       0.048     53        %
   XC_Functional       v_xc                6.9398         77        0.09      49        %
   XC_Functional       v_xc_libxc          7.3633         154       0.048     52        %
   ESolver_OF          Run                 13.692         1         14        97        %
   KEDF_LKT            LKT_potential       4.5472         153       0.03      32        %
   KEDF_vW             vw_potential        0.61535        153       0.004     4.4       %
 ----------------------------------------------------------------------------------------

 START  Time  : Tue May  2 12:51:28 2023
 FINISH Time  : Tue May  2 12:51:43 2023
 TOTAL  Time  : 15
 SEE INFORMATION IN : OUT.blpstest/
