                                                                                     
                             WELCOME TO ABACUS                                       
                                                                                     
               'Atomic-orbital Based Ab-initio Computation at UStc'                  
                                                                                     
                     Website: http://abacus.ustc.edu.cn/                             
                                                                                     
    Version: Parallel, in development
    Processor Number is 1
    Start Time is Fri Jul 30 20:07:54 2021
                                                                                     
 ------------------------------------------------------------------------------------

 READING GENERAL INFORMATION
                           global_out_dir = OUT.blpstest/
                           global_in_card = INPUT
                               pseudo_dir = ./
                              pseudo_type = blps
                                    DRANK = 1
                                    DSIZE = 1
                                   DCOLOR = 1
                                    GRANK = 1
                                    GSIZE = 1




 >>>>>>>>>>>>>>>>>>>>>>>>>>>>>>>>>>>>>>>>>>>>>>>>>>>>>>>>>>>>>>>>>>>>>>
 |                                                                    |
 | Reading atom information in unitcell:                              |
 | From the input file and the structure file we know the number of   |
 | different elments in this unitcell, then we list the detail        |
 | information for each element, especially the zeta and polar atomic |
 | orbital number for each element. The total atom number is counted. |
 | We calculate the nearest atom distance for each atom and show the  |
 | Cartesian and Direct coordinates for each atom. We list the file   |
 | address for atomic orbitals. The volume and the lattice vectors    |
 | in real and reciprocal space is also shown.                        |
 |                                                                    |
 <<<<<<<<<<<<<<<<<<<<<<<<<<<<<<<<<<<<<<<<<<<<<<<<<<<<<<<<<<<<<<<<<<<<<<




 READING UNITCELL INFORMATION
                                    ntype = 1
                 atom label for species 1 = Al
                  lattice constant (Bohr) = 6.06945
              lattice constant (Angstrom) = 3.21181

 READING ATOM TYPE 1
                               atom label = Al
                      start magnetization = FALSE
                      L=0, number of zeta = 1
                      L=1, number of zeta = 1
                      L=2, number of zeta = 1
             number of atom for this type = 1

                        TOTAL ATOM NUMBER = 1

 DIRECT COORDINATES
         atom                   x                   y                   z                 mag
     taud_Al1                   0                   0                   0                   0


                          Volume (Bohr^3) = 111.794
                             Volume (A^3) = 16.5661

 Lattice vectors: (Cartesian coordinate: in unit of a_0)
                 -0.5                +0.5                +0.5
                 +0.5                -0.5                +0.5
                 +0.5                +0.5                -0.5
 Reciprocal vectors: (Cartesian coordinate: in unit of 2 pi/a_0)
                   +0                  +1                  +1
                   +1                  +0                  +1
                   +1                  +1                  +0




 >>>>>>>>>>>>>>>>>>>>>>>>>>>>>>>>>>>>>>>>>>>>>>>>>>>>>>>>>>>>>>>>>>>>>>
 |                                                                    |
 | Reading pseudopotentials files:                                    |
 | The pseudopotential file is in UPF format. The 'NC' indicates that |
 | the type of pseudopotential is 'norm conserving'. Functional of    |
 | exchange and correlation is decided by 4 given parameters in UPF   |
 | file.  We also read in the 'core correction' if there exists.      |
 | Also we can read the valence electrons number and the maximal      |
 | angular momentum used in this pseudopotential. We also read in the |
 | trail wave function, trail atomic density and local-pseudopotential|
 | on logrithmic grid. The non-local pseudopotential projector is also|
 | read in if there is any.                                           |
 |                                                                    |
 <<<<<<<<<<<<<<<<<<<<<<<<<<<<<<<<<<<<<<<<<<<<<<<<<<<<<<<<<<<<<<<<<<<<<<




                PAO radial cut off (Bohr) = 16

 Read in pseudopotential file is al.lda.lps
                     pseudopotential type = 
                            functional Ex = LDA
                            functional Ec = LDA
                          functional GCEx = NOGX
                          functional GCEc = NOGC
                 nonlocal core correction = 0
                        valence electrons = 3
                                     lmax = 0
                           number of zeta = 0
                     number of projectors = 0
     initial pseudo atomic orbital number = 0
                                   NLOCAL = 9

 SETUP THE ELECTRONS NUMBER
            electron number of element Al = 3
      total electron number of element Al = 3
                           occupied bands = 2
                                   NBANDS = 15
 DONE : SETUP UNITCELL Time : 0.0211411 (SEC)





 >>>>>>>>>>>>>>>>>>>>>>>>>>>>>>>>>>>>>>>>>>>>>>>>>>>>>>>>>>>>>>>>>>>>>>
 |                                                                    |
 | Doing symmetry analysis:                                           |
 | We calculate the norm of 3 vectors and the angles between them,    |
 | the type of Bravais lattice is given. We can judge if the unticell |
 | is a primitive cell. Finally we give the point group operation for |
 | this unitcell. We we use the point group operations to do symmetry |
 | analysis on given k-point mesh and the charge density.             |
 |                                                                    |
 <<<<<<<<<<<<<<<<<<<<<<<<<<<<<<<<<<<<<<<<<<<<<<<<<<<<<<<<<<<<<<<<<<<<<<




 LATTICE VECTORS: (CARTESIAN COORDINATE: IN UNIT OF A0)
                 -0.5                +0.5                +0.5
                 +0.5                -0.5                +0.5
                 +0.5                +0.5                -0.5
                       right hand lattice = 1
                                   NORM_A = 0.866025
                                   NORM_B = 0.866025
                                   NORM_C = 0.866025
                           ALPHA (DEGREE) = 109.471
                           BETA  (DEGREE) = 109.471
                           GAMMA (DEGREE) = 109.471
                             BRAVAIS TYPE = 2
                     BRAVAIS LATTICE NAME = 02. Cubic I (body-centered)
 STANDARD LATTICE VECTORS: (CARTESIAN COORDINATE: IN UNIT OF A0)
                 -0.5                +0.5                +0.5
                 +0.5                -0.5                +0.5
                 +0.5                +0.5                -0.5
                                    IBRAV = 2
                                  BRAVAIS = BODY CENTERED CUBIC
                       LATTICE CONSTANT A = 2.59808
                                    ibrav = 2
                        ROTATION MATRICES = 48
              PURE POINT GROUP OPERATIONS = 48
                   SPACE GROUP OPERATIONS = 48
                              POINT GROUP = O_h
 DONE : SYMMETRY Time : 0.0728331 (SEC)





 >>>>>>>>>>>>>>>>>>>>>>>>>>>>>>>>>>>>>>>>>>>>>>>>>>>>>>>>>>>>>>>>>>>>>>
 |                                                                    |
 | Setup K-points                                                     |
 | We setup the k-points according to input parameters.               |
 | The reduced k-points are set according to symmetry operations.     |
 | We treat the spin as another set of k-points.                      |
 |                                                                    |
 <<<<<<<<<<<<<<<<<<<<<<<<<<<<<<<<<<<<<<<<<<<<<<<<<<<<<<<<<<<<<<<<<<<<<<





 SETUP K-POINTS
                                    nspin = 1
                   Input type of k points = Monkhorst-Pack(Gamma)
                                   nkstot = 8000
                               nkstot_ibz = 256
      IBZ             DirectX             DirectY             DirectZ              Weight    ibz2bz
        1                   0                   0                   0            0.000125         0
        2                0.95                0.05                   0              0.0015         1
        3                 0.9                 0.1                   0              0.0015         2
        4                0.85                0.15                   0              0.0015         3
        5                 0.8                 0.2                   0              0.0015         4
        6                0.75                0.25                   0              0.0015         5
        7                 0.7                 0.3                   0              0.0015         6
        8                0.65                0.35                   0              0.0015         7
        9                 0.6                 0.4                   0              0.0015         8
       10                0.55                0.45                   0              0.0015         9
       11                 0.5                 0.5                   0             0.00075        10
       12                0.95                0.95                 0.1               0.003        21
       13                0.95                 0.9                0.15               0.006        22
       14                0.95                0.85                 0.2               0.006        23
       15                0.95                 0.8                0.25               0.006        24
       16                0.95                0.75                 0.3               0.006        25
       17                0.95                 0.7                0.35               0.006        26
       18                0.95                 0.4                0.65               0.006        27
       19                0.95                 0.6                0.45               0.006        28
       20                0.95                0.55                 0.5               0.006        29
       21                 0.9                 0.9                 0.2               0.003        42
       22                 0.9                0.85                0.25               0.006        43
       23                 0.9                 0.8                 0.3               0.006        44
       24                 0.9                0.75                0.35               0.006        45
       25                 0.9                 0.7                 0.4               0.006        46
       26                 0.9                0.45                0.65               0.006        47
       27                 0.9                 0.6                 0.5               0.006        48
       28                 0.9                0.55                0.55               0.003        49
       29                0.85                0.85                 0.3               0.003        63
       30                0.85                 0.8                0.35               0.006        64
       31                0.85                0.75                 0.4               0.006        65
       32                0.85                 0.7                0.45               0.006        66
       33                0.85                0.65                 0.5               0.006        67
       34                0.85                 0.6                0.55               0.006        68
       35                 0.8                 0.8                 0.4               0.003        84
       36                 0.8                0.75                0.45               0.006        85
       37                 0.8                 0.7                 0.5               0.006        86
       38                 0.8                0.65                0.55               0.006        87
       39                 0.6                 0.6                 0.8               0.003        88
       40                0.75                0.75                 0.5               0.003       105
       41                0.75                 0.7                0.55               0.006       106
       42                0.75                0.65                 0.6               0.006       107
       43                 0.7                 0.7                 0.6               0.003       126
       44                 0.7                0.65                0.65               0.003       127
       45                0.95                0.95                0.95               0.001       421
       46                0.95                0.95                 0.9               0.003       422
       47                0.95                0.95                0.85               0.003       423
       48                0.95                0.95                 0.8               0.003       424
       49                0.95                0.95                0.75               0.003       425
       50                0.95                0.95                 0.7               0.003       426
       51                0.95                0.95                0.65               0.003       427
       52                0.95                0.95                 0.6               0.003       428
       53                0.95                0.95                0.55              0.0015       429
       54                0.95                0.95                0.05             0.00075       439
       55                0.95                 0.9                 0.9               0.003       442
       56                0.95                0.85                 0.9               0.006       443
       57                0.95                 0.9                 0.8               0.006       444
       58                0.95                 0.9                0.75               0.006       445
       59                 0.9                 0.7                0.95               0.006       446
       60                 0.9                0.65                0.95               0.006       447
       61                0.95                 0.9                 0.6               0.006       448
       62                0.95                 0.1                 0.9               0.003       458
       63                0.95                0.85                0.85               0.003       463
       64                0.95                0.85                 0.8               0.006       464
       65                0.95                0.85                0.75               0.006       465
       66                0.95                0.85                 0.7               0.006       466
       67                0.95                0.85                0.65               0.006       467
       68                0.95                0.85                 0.6               0.003       468
       69                0.95                0.85                0.15               0.003       477
       70                 0.9                 0.9                0.15               0.003       478
       71                0.95                 0.8                 0.8               0.003       484
       72                0.95                 0.8                0.75               0.006       485
       73                 0.8                 0.7                0.95               0.006       486
       74                 0.8                0.65                0.95               0.006       487
       75                0.95                 0.8                 0.2               0.003       496
       76                 0.9                0.85                 0.2               0.006       497
       77                0.95                0.75                0.75               0.003       505
       78                0.75                 0.7                0.95               0.006       506
       79                0.75                0.65                0.95               0.003       507
       80                0.95                0.75                0.25               0.003       515
       81                 0.9                 0.8                0.25               0.006       516
       82                0.85                0.85                0.25               0.003       517
       83                0.95                 0.7                 0.7               0.003       526
       84                0.95                 0.7                 0.3               0.003       534
       85                 0.9                0.75                 0.3               0.006       535
       86                0.85                 0.8                 0.3               0.006       536
       87                0.95                0.65                0.35               0.003       553
       88                 0.9                 0.7                0.35               0.006       554
       89                0.85                0.75                0.35               0.006       555
       90                 0.8                 0.8                0.35               0.003       556
       91                0.95                 0.6                 0.4               0.003       572
       92                 0.9                0.65                 0.4               0.006       573
       93                0.85                 0.7                 0.4               0.006       574
       94                 0.8                0.75                 0.4               0.006       575
       95                0.95                0.55                0.45               0.003       591
       96                 0.9                 0.6                0.45               0.006       592
       97                0.85                0.65                0.45               0.006       593
       98                 0.8                 0.7                0.45               0.006       594
       99                0.75                0.75                0.45               0.003       595
      100                0.95                 0.5                 0.5              0.0015       610
      101                 0.9                0.55                 0.5               0.006       611
      102                0.85                 0.6                 0.5               0.006       612
      103                 0.8                0.65                 0.5               0.006       613
      104                0.75                 0.7                 0.5               0.006       614
      105                0.55                0.55                0.85               0.003       631
      106                 0.8                0.55                 0.6               0.006       632
      107                0.75                0.65                0.55               0.006       633
      108                 0.7                 0.7                0.55               0.003       634
      109                0.75                 0.6                 0.6               0.003       652
      110                 0.7                0.65                 0.6               0.006       653
      111                0.65                0.65                0.65               0.001       673
      112                 0.9                 0.9                 0.9               0.001       842
      113                 0.9                 0.9                0.85               0.003       843
      114                 0.9                 0.9                 0.8               0.003       844
      115                 0.9                 0.9                0.75               0.003       845
      116                 0.9                 0.7                 0.9               0.003       846
      117                 0.9                0.65                 0.9               0.003       847
      118                 0.9                 0.9                 0.6              0.0015       848
      119                 0.9                 0.9                 0.1             0.00075       858
      120                 0.9                0.85                0.85               0.003       863
      121                 0.9                0.85                 0.8               0.006       864
      122                 0.9                0.85                0.75               0.006       865
      123                 0.9                0.85                 0.7               0.006       866
      124                 0.9                0.85                0.65               0.006       867
      125                 0.9                0.85                0.15               0.003       877
      126                 0.9                 0.8                 0.8               0.003       884
      127                 0.9                 0.8                0.75               0.006       885
      128                 0.9                 0.8                 0.7               0.006       886
      129                 0.9                 0.8                0.65               0.003       887
      130                 0.9                 0.8                 0.2               0.003       896
      131                0.85                0.85                 0.2               0.003       897
      132                 0.9                0.75                0.75               0.003       905
      133                 0.9                0.75                 0.7               0.006       906
      134                 0.9                0.75                0.25               0.003       915
      135                0.85                 0.8                0.25               0.006       916
      136                 0.9                 0.7                 0.7               0.001       926
      137                 0.9                 0.7                 0.3               0.003       934
      138                0.85                0.75                 0.3               0.006       935
      139                 0.8                 0.8                 0.3               0.003       936
      140                 0.9                0.65                0.35               0.003       953
      141                0.85                 0.7                0.35               0.006       954
      142                 0.8                0.75                0.35               0.006       955
      143                 0.9                 0.6                 0.4               0.003       972
      144                0.85                0.65                 0.4               0.006       973
      145                 0.8                 0.7                 0.4               0.006       974
      146                0.75                0.75                 0.4               0.003       975
      147                 0.9                0.45                0.55               0.003       991
      148                0.85                 0.6                0.45               0.006       992
      149                 0.8                0.65                0.45               0.006       993
      150                0.75                 0.7                0.45               0.006       994
      151                 0.9                 0.5                 0.5              0.0015      1010
      152                0.85                0.55                 0.5               0.006      1011
      153                 0.8                 0.6                 0.5               0.006      1012
      154                0.75                0.65                 0.5               0.006      1013
      155                 0.7                 0.7                 0.5               0.003      1014
      156                 0.8                0.55                0.55               0.003      1031
      157                0.75                 0.6                0.55               0.006      1032
      158                 0.7                0.65                0.55               0.006      1033
      159                 0.7                 0.6                 0.6               0.003      1052
      160                0.65                0.65                 0.6               0.003      1053
      161                0.85                0.85                0.85               0.001      1263
      162                0.85                0.85                 0.8               0.003      1264
      163                0.85                0.85                0.75               0.003      1265
      164                0.85                0.85                 0.7               0.003      1266
      165                0.85                0.85                0.65              0.0015      1267
      166                0.85                0.85                0.15             0.00075      1277
      167                0.85                 0.8                 0.8               0.003      1284
      168                0.85                 0.8                0.75               0.006      1285
      169                0.85                 0.8                 0.7               0.006      1286
      170                0.85                 0.8                 0.2               0.003      1296
      171                0.85                0.75                0.75               0.003      1305
      172                0.85                0.75                 0.7               0.003      1306
      173                0.85                0.75                0.25               0.003      1315
      174                 0.8                 0.8                0.25               0.003      1316
      175                0.85                 0.7                 0.3               0.003      1334
      176                 0.8                0.75                 0.3               0.006      1335
      177                0.85                0.65                0.35               0.003      1353
      178                 0.8                 0.7                0.35               0.006      1354
      179                0.75                0.75                0.35               0.003      1355
      180                0.85                 0.6                 0.4               0.003      1372
      181                 0.8                0.65                 0.4               0.006      1373
      182                0.75                 0.7                 0.4               0.006      1374
      183                0.85                0.55                0.45               0.003      1391
      184                 0.8                 0.6                0.45               0.006      1392
      185                0.75                0.65                0.45               0.006      1393
      186                 0.7                 0.7                0.45               0.003      1394
      187                0.85                 0.5                 0.5              0.0015      1410
      188                 0.8                0.55                 0.5               0.006      1411
      189                0.75                 0.6                 0.5               0.006      1412
      190                 0.7                0.65                 0.5               0.006      1413
      191                0.75                0.55                0.55               0.003      1431
      192                 0.6                0.55                 0.7               0.006      1432
      193                0.65                0.65                0.55               0.003      1433
      194                0.65                 0.6                 0.6               0.003      1452
      195                 0.8                 0.8                 0.8               0.001      1684
      196                 0.8                 0.8                0.75               0.003      1685
      197                 0.8                 0.8                 0.7              0.0015      1686
      198                 0.8                 0.8                 0.2             0.00075      1696
      199                 0.8                0.75                0.75               0.003      1705
      200                 0.8                0.75                0.25               0.003      1715
      201                 0.8                 0.7                 0.3               0.003      1734
      202                0.75                0.75                 0.3               0.003      1735
      203                 0.8                0.65                0.35               0.003      1753
      204                0.75                 0.7                0.35               0.006      1754
      205                 0.8                 0.6                 0.4               0.003      1772
      206                0.75                0.65                 0.4               0.006      1773
      207                 0.7                 0.7                 0.4               0.003      1774
      208                 0.8                0.45                0.55               0.003      1791
      209                0.75                 0.6                0.45               0.006      1792
      210                 0.7                0.65                0.45               0.006      1793
      211                 0.8                 0.5                 0.5              0.0015      1810
      212                0.75                0.55                 0.5               0.006      1811
      213                 0.7                 0.5                 0.6               0.006      1812
      214                0.65                0.65                 0.5               0.003      1813
      215                 0.7                0.55                0.55               0.003      1831
      216                 0.6                0.55                0.65               0.006      1832
      217                 0.6                 0.6                 0.6               0.001      1852
      218                0.75                0.75                0.75             0.00025      2105
      219                0.75                0.75                0.25             0.00075      2115
      220                0.75                 0.7                 0.3               0.003      2134
      221                0.75                0.65                0.35               0.003      2153
      222                 0.7                 0.7                0.35               0.003      2154
      223                0.75                 0.6                 0.4               0.003      2172
      224                 0.7                0.65                 0.4               0.006      2173
      225                0.75                0.45                0.55               0.003      2191
      226                 0.6                0.45                 0.7               0.006      2192
      227                0.65                0.65                0.45               0.003      2193
      228                0.75                 0.5                 0.5              0.0015      2210
      229                 0.7                0.55                 0.5               0.006      2211
      230                0.65                 0.5                 0.6               0.006      2212
      231                0.65                0.55                0.55               0.003      2231
      232                 0.6                 0.6                0.55               0.003      2232
      233                 0.7                 0.7                 0.3             0.00075      2534
      234                 0.7                0.65                0.35               0.003      2553
      235                 0.6                 0.4                 0.7               0.003      2572
      236                0.65                0.65                 0.4               0.003      2573
      237                0.55                0.45                 0.7               0.003      2591
      238                 0.6                0.45                0.65               0.006      2592
      239                 0.7                 0.5                 0.5              0.0015      2610
      240                0.65                0.55                 0.5               0.006      2611
      241                 0.6                 0.6                 0.5               0.003      2612
      242                 0.6                0.55                0.55               0.003      2631
      243                0.65                0.65                0.35             0.00075      2953
      244                 0.6                 0.4                0.65               0.003      2972
      245                0.55                0.45                0.65               0.003      2991
      246                 0.6                 0.6                0.45               0.003      2992
      247                0.65                 0.5                 0.5              0.0015      3010
      248                 0.6                0.55                 0.5               0.006      3011
      249                0.55                0.55                0.55               0.001      3031
      250                 0.6                 0.6                 0.4             0.00075      3372
      251                 0.6                0.55                0.45               0.003      3391
      252                 0.6                 0.5                 0.5              0.0015      3410
      253                0.55                0.55                 0.5               0.003      3411
      254                0.55                0.55                0.45             0.00075      3791
      255                0.55                 0.5                 0.5              0.0015      3810
      256                 0.5                 0.5                 0.5            0.000125      4210
                               nkstot now = 256

  KPOINTS            DIRECT_X            DIRECT_Y            DIRECT_Z              WEIGHT
        1                   0                   0                   0            0.000125
        2                0.95                0.05                   0              0.0015
        3                 0.9                 0.1                   0              0.0015
        4                0.85                0.15                   0              0.0015
        5                 0.8                 0.2                   0              0.0015
        6                0.75                0.25                   0              0.0015
        7                 0.7                 0.3                   0              0.0015
        8                0.65                0.35                   0              0.0015
        9                 0.6                 0.4                   0              0.0015
       10                0.55                0.45                   0              0.0015
       11                 0.5                 0.5                   0             0.00075
       12                0.95                0.95                 0.1               0.003
       13                0.95                 0.9                0.15               0.006
       14                0.95                0.85                 0.2               0.006
       15                0.95                 0.8                0.25               0.006
       16                0.95                0.75                 0.3               0.006
       17                0.95                 0.7                0.35               0.006
       18                0.95                 0.4                0.65               0.006
       19                0.95                 0.6                0.45               0.006
       20                0.95                0.55                 0.5               0.006
       21                 0.9                 0.9                 0.2               0.003
       22                 0.9                0.85                0.25               0.006
       23                 0.9                 0.8                 0.3               0.006
       24                 0.9                0.75                0.35               0.006
       25                 0.9                 0.7                 0.4               0.006
       26                 0.9                0.45                0.65               0.006
       27                 0.9                 0.6                 0.5               0.006
       28                 0.9                0.55                0.55               0.003
       29                0.85                0.85                 0.3               0.003
       30                0.85                 0.8                0.35               0.006
       31                0.85                0.75                 0.4               0.006
       32                0.85                 0.7                0.45               0.006
       33                0.85                0.65                 0.5               0.006
       34                0.85                 0.6                0.55               0.006
       35                 0.8                 0.8                 0.4               0.003
       36                 0.8                0.75                0.45               0.006
       37                 0.8                 0.7                 0.5               0.006
       38                 0.8                0.65                0.55               0.006
       39                 0.6                 0.6                 0.8               0.003
       40                0.75                0.75                 0.5               0.003
       41                0.75                 0.7                0.55               0.006
       42                0.75                0.65                 0.6               0.006
       43                 0.7                 0.7                 0.6               0.003
       44                 0.7                0.65                0.65               0.003
       45                0.95                0.95                0.95               0.001
       46                0.95                0.95                 0.9               0.003
       47                0.95                0.95                0.85               0.003
       48                0.95                0.95                 0.8               0.003
       49                0.95                0.95                0.75               0.003
       50                0.95                0.95                 0.7               0.003
       51                0.95                0.95                0.65               0.003
       52                0.95                0.95                 0.6               0.003
       53                0.95                0.95                0.55              0.0015
       54                0.95                0.95                0.05             0.00075
       55                0.95                 0.9                 0.9               0.003
       56                0.95                0.85                 0.9               0.006
       57                0.95                 0.9                 0.8               0.006
       58                0.95                 0.9                0.75               0.006
       59                 0.9                 0.7                0.95               0.006
       60                 0.9                0.65                0.95               0.006
       61                0.95                 0.9                 0.6               0.006
       62                0.95                 0.1                 0.9               0.003
       63                0.95                0.85                0.85               0.003
       64                0.95                0.85                 0.8               0.006
       65                0.95                0.85                0.75               0.006
       66                0.95                0.85                 0.7               0.006
       67                0.95                0.85                0.65               0.006
       68                0.95                0.85                 0.6               0.003
       69                0.95                0.85                0.15               0.003
       70                 0.9                 0.9                0.15               0.003
       71                0.95                 0.8                 0.8               0.003
       72                0.95                 0.8                0.75               0.006
       73                 0.8                 0.7                0.95               0.006
       74                 0.8                0.65                0.95               0.006
       75                0.95                 0.8                 0.2               0.003
       76                 0.9                0.85                 0.2               0.006
       77                0.95                0.75                0.75               0.003
       78                0.75                 0.7                0.95               0.006
       79                0.75                0.65                0.95               0.003
       80                0.95                0.75                0.25               0.003
       81                 0.9                 0.8                0.25               0.006
       82                0.85                0.85                0.25               0.003
       83                0.95                 0.7                 0.7               0.003
       84                0.95                 0.7                 0.3               0.003
       85                 0.9                0.75                 0.3               0.006
       86                0.85                 0.8                 0.3               0.006
       87                0.95                0.65                0.35               0.003
       88                 0.9                 0.7                0.35               0.006
       89                0.85                0.75                0.35               0.006
       90                 0.8                 0.8                0.35               0.003
       91                0.95                 0.6                 0.4               0.003
       92                 0.9                0.65                 0.4               0.006
       93                0.85                 0.7                 0.4               0.006
       94                 0.8                0.75                 0.4               0.006
       95                0.95                0.55                0.45               0.003
       96                 0.9                 0.6                0.45               0.006
       97                0.85                0.65                0.45               0.006
       98                 0.8                 0.7                0.45               0.006
       99                0.75                0.75                0.45               0.003
      100                0.95                 0.5                 0.5              0.0015
      101                 0.9                0.55                 0.5               0.006
      102                0.85                 0.6                 0.5               0.006
      103                 0.8                0.65                 0.5               0.006
      104                0.75                 0.7                 0.5               0.006
      105                0.55                0.55                0.85               0.003
      106                 0.8                0.55                 0.6               0.006
      107                0.75                0.65                0.55               0.006
      108                 0.7                 0.7                0.55               0.003
      109                0.75                 0.6                 0.6               0.003
      110                 0.7                0.65                 0.6               0.006
      111                0.65                0.65                0.65               0.001
      112                 0.9                 0.9                 0.9               0.001
      113                 0.9                 0.9                0.85               0.003
      114                 0.9                 0.9                 0.8               0.003
      115                 0.9                 0.9                0.75               0.003
      116                 0.9                 0.7                 0.9               0.003
      117                 0.9                0.65                 0.9               0.003
      118                 0.9                 0.9                 0.6              0.0015
      119                 0.9                 0.9                 0.1             0.00075
      120                 0.9                0.85                0.85               0.003
      121                 0.9                0.85                 0.8               0.006
      122                 0.9                0.85                0.75               0.006
      123                 0.9                0.85                 0.7               0.006
      124                 0.9                0.85                0.65               0.006
      125                 0.9                0.85                0.15               0.003
      126                 0.9                 0.8                 0.8               0.003
      127                 0.9                 0.8                0.75               0.006
      128                 0.9                 0.8                 0.7               0.006
      129                 0.9                 0.8                0.65               0.003
      130                 0.9                 0.8                 0.2               0.003
      131                0.85                0.85                 0.2               0.003
      132                 0.9                0.75                0.75               0.003
      133                 0.9                0.75                 0.7               0.006
      134                 0.9                0.75                0.25               0.003
      135                0.85                 0.8                0.25               0.006
      136                 0.9                 0.7                 0.7               0.001
      137                 0.9                 0.7                 0.3               0.003
      138                0.85                0.75                 0.3               0.006
      139                 0.8                 0.8                 0.3               0.003
      140                 0.9                0.65                0.35               0.003
      141                0.85                 0.7                0.35               0.006
      142                 0.8                0.75                0.35               0.006
      143                 0.9                 0.6                 0.4               0.003
      144                0.85                0.65                 0.4               0.006
      145                 0.8                 0.7                 0.4               0.006
      146                0.75                0.75                 0.4               0.003
      147                 0.9                0.45                0.55               0.003
      148                0.85                 0.6                0.45               0.006
      149                 0.8                0.65                0.45               0.006
      150                0.75                 0.7                0.45               0.006
      151                 0.9                 0.5                 0.5              0.0015
      152                0.85                0.55                 0.5               0.006
      153                 0.8                 0.6                 0.5               0.006
      154                0.75                0.65                 0.5               0.006
      155                 0.7                 0.7                 0.5               0.003
      156                 0.8                0.55                0.55               0.003
      157                0.75                 0.6                0.55               0.006
      158                 0.7                0.65                0.55               0.006
      159                 0.7                 0.6                 0.6               0.003
      160                0.65                0.65                 0.6               0.003
      161                0.85                0.85                0.85               0.001
      162                0.85                0.85                 0.8               0.003
      163                0.85                0.85                0.75               0.003
      164                0.85                0.85                 0.7               0.003
      165                0.85                0.85                0.65              0.0015
      166                0.85                0.85                0.15             0.00075
      167                0.85                 0.8                 0.8               0.003
      168                0.85                 0.8                0.75               0.006
      169                0.85                 0.8                 0.7               0.006
      170                0.85                 0.8                 0.2               0.003
      171                0.85                0.75                0.75               0.003
      172                0.85                0.75                 0.7               0.003
      173                0.85                0.75                0.25               0.003
      174                 0.8                 0.8                0.25               0.003
      175                0.85                 0.7                 0.3               0.003
      176                 0.8                0.75                 0.3               0.006
      177                0.85                0.65                0.35               0.003
      178                 0.8                 0.7                0.35               0.006
      179                0.75                0.75                0.35               0.003
      180                0.85                 0.6                 0.4               0.003
      181                 0.8                0.65                 0.4               0.006
      182                0.75                 0.7                 0.4               0.006
      183                0.85                0.55                0.45               0.003
      184                 0.8                 0.6                0.45               0.006
      185                0.75                0.65                0.45               0.006
      186                 0.7                 0.7                0.45               0.003
      187                0.85                 0.5                 0.5              0.0015
      188                 0.8                0.55                 0.5               0.006
      189                0.75                 0.6                 0.5               0.006
      190                 0.7                0.65                 0.5               0.006
      191                0.75                0.55                0.55               0.003
      192                 0.6                0.55                 0.7               0.006
      193                0.65                0.65                0.55               0.003
      194                0.65                 0.6                 0.6               0.003
      195                 0.8                 0.8                 0.8               0.001
      196                 0.8                 0.8                0.75               0.003
      197                 0.8                 0.8                 0.7              0.0015
      198                 0.8                 0.8                 0.2             0.00075
      199                 0.8                0.75                0.75               0.003
      200                 0.8                0.75                0.25               0.003
      201                 0.8                 0.7                 0.3               0.003
      202                0.75                0.75                 0.3               0.003
      203                 0.8                0.65                0.35               0.003
      204                0.75                 0.7                0.35               0.006
      205                 0.8                 0.6                 0.4               0.003
      206                0.75                0.65                 0.4               0.006
      207                 0.7                 0.7                 0.4               0.003
      208                 0.8                0.45                0.55               0.003
      209                0.75                 0.6                0.45               0.006
      210                 0.7                0.65                0.45               0.006
      211                 0.8                 0.5                 0.5              0.0015
      212                0.75                0.55                 0.5               0.006
      213                 0.7                 0.5                 0.6               0.006
      214                0.65                0.65                 0.5               0.003
      215                 0.7                0.55                0.55               0.003
      216                 0.6                0.55                0.65               0.006
      217                 0.6                 0.6                 0.6               0.001
      218                0.75                0.75                0.75             0.00025
      219                0.75                0.75                0.25             0.00075
      220                0.75                 0.7                 0.3               0.003
      221                0.75                0.65                0.35               0.003
      222                 0.7                 0.7                0.35               0.003
      223                0.75                 0.6                 0.4               0.003
      224                 0.7                0.65                 0.4               0.006
      225                0.75                0.45                0.55               0.003
      226                 0.6                0.45                 0.7               0.006
      227                0.65                0.65                0.45               0.003
      228                0.75                 0.5                 0.5              0.0015
      229                 0.7                0.55                 0.5               0.006
      230                0.65                 0.5                 0.6               0.006
      231                0.65                0.55                0.55               0.003
      232                 0.6                 0.6                0.55               0.003
      233                 0.7                 0.7                 0.3             0.00075
      234                 0.7                0.65                0.35               0.003
      235                 0.6                 0.4                 0.7               0.003
      236                0.65                0.65                 0.4               0.003
      237                0.55                0.45                 0.7               0.003
      238                 0.6                0.45                0.65               0.006
      239                 0.7                 0.5                 0.5              0.0015
      240                0.65                0.55                 0.5               0.006
      241                 0.6                 0.6                 0.5               0.003
      242                 0.6                0.55                0.55               0.003
      243                0.65                0.65                0.35             0.00075
      244                 0.6                 0.4                0.65               0.003
      245                0.55                0.45                0.65               0.003
      246                 0.6                 0.6                0.45               0.003
      247                0.65                 0.5                 0.5              0.0015
      248                 0.6                0.55                 0.5               0.006
      249                0.55                0.55                0.55               0.001
      250                 0.6                 0.6                 0.4             0.00075
      251                 0.6                0.55                0.45               0.003
      252                 0.6                 0.5                 0.5              0.0015
      253                0.55                0.55                 0.5               0.003
      254                0.55                0.55                0.45             0.00075
      255                0.55                 0.5                 0.5              0.0015
      256                 0.5                 0.5                 0.5            0.000125

           k-point number in this process = 256
       minimum distributed K point number = 256

  KPOINTS         CARTESIAN_X         CARTESIAN_Y         CARTESIAN_Z              WEIGHT
        1                   0                   0                   0             0.00025
        2                0.05                0.95                   1               0.003
        3                 0.1                 0.9                   1               0.003
        4                0.15                0.85                   1               0.003
        5                 0.2                 0.8                   1               0.003
        6                0.25                0.75                   1               0.003
        7                 0.3                 0.7                   1               0.003
        8                0.35                0.65                   1               0.003
        9                 0.4                 0.6                   1               0.003
       10                0.45                0.55                   1               0.003
       11                 0.5                 0.5                   1              0.0015
       12                1.05                1.05                 1.9               0.006
       13                1.05                 1.1                1.85               0.012
       14                1.05                1.15                 1.8               0.012
       15                1.05                 1.2                1.75               0.012
       16                1.05                1.25                 1.7               0.012
       17                1.05                 1.3                1.65               0.012
       18                1.05                 1.6                1.35               0.012
       19                1.05                 1.4                1.55               0.012
       20                1.05                1.45                 1.5               0.012
       21                 1.1                 1.1                 1.8               0.006
       22                 1.1                1.15                1.75               0.012
       23                 1.1                 1.2                 1.7               0.012
       24                 1.1                1.25                1.65               0.012
       25                 1.1                 1.3                 1.6               0.012
       26                 1.1                1.55                1.35               0.012
       27                 1.1                 1.4                 1.5               0.012
       28                 1.1                1.45                1.45               0.006
       29                1.15                1.15                 1.7               0.006
       30                1.15                 1.2                1.65               0.012
       31                1.15                1.25                 1.6               0.012
       32                1.15                 1.3                1.55               0.012
       33                1.15                1.35                 1.5               0.012
       34                1.15                 1.4                1.45               0.012
       35                 1.2                 1.2                 1.6               0.006
       36                 1.2                1.25                1.55               0.012
       37                 1.2                 1.3                 1.5               0.012
       38                 1.2                1.35                1.45               0.012
       39                 1.4                 1.4                 1.2               0.006
       40                1.25                1.25                 1.5               0.006
       41                1.25                 1.3                1.45               0.012
       42                1.25                1.35                 1.4               0.012
       43                 1.3                 1.3                 1.4               0.006
       44                 1.3                1.35                1.35               0.006
       45                 1.9                 1.9                 1.9               0.002
       46                1.85                1.85                 1.9               0.006
       47                 1.8                 1.8                 1.9               0.006
       48                1.75                1.75                 1.9               0.006
       49                 1.7                 1.7                 1.9               0.006
       50                1.65                1.65                 1.9               0.006
       51                 1.6                 1.6                 1.9               0.006
       52                1.55                1.55                 1.9               0.006
       53                 1.5                 1.5                 1.9               0.003
       54                   1                   1                 1.9              0.0015
       55                 1.8                1.85                1.85               0.006
       56                1.75                1.85                 1.8               0.012
       57                 1.7                1.75                1.85               0.012
       58                1.65                 1.7                1.85               0.012
       59                1.65                1.85                 1.6               0.012
       60                 1.6                1.85                1.55               0.012
       61                 1.5                1.55                1.85               0.012
       62                   1                1.85                1.05               0.006
       63                 1.7                 1.8                 1.8               0.006
       64                1.65                1.75                 1.8               0.012
       65                 1.6                 1.7                 1.8               0.012
       66                1.55                1.65                 1.8               0.012
       67                 1.5                 1.6                 1.8               0.012
       68                1.45                1.55                 1.8               0.006
       69                   1                 1.1                 1.8               0.006
       70                1.05                1.05                 1.8               0.006
       71                 1.6                1.75                1.75               0.006
       72                1.55                 1.7                1.75               0.012
       73                1.65                1.75                 1.5               0.012
       74                 1.6                1.75                1.45               0.012
       75                   1                1.15                1.75               0.006
       76                1.05                 1.1                1.75               0.012
       77                 1.5                 1.7                 1.7               0.006
       78                1.65                 1.7                1.45               0.012
       79                 1.6                 1.7                 1.4               0.006
       80                   1                 1.2                 1.7               0.006
       81                1.05                1.15                 1.7               0.012
       82                 1.1                 1.1                 1.7               0.006
       83                 1.4                1.65                1.65               0.006
       84                   1                1.25                1.65               0.006
       85                1.05                 1.2                1.65               0.012
       86                 1.1                1.15                1.65               0.012
       87                   1                 1.3                 1.6               0.006
       88                1.05                1.25                 1.6               0.012
       89                 1.1                 1.2                 1.6               0.012
       90                1.15                1.15                 1.6               0.006
       91                   1                1.35                1.55               0.006
       92                1.05                 1.3                1.55               0.012
       93                 1.1                1.25                1.55               0.012
       94                1.15                 1.2                1.55               0.012
       95                   1                 1.4                 1.5               0.006
       96                1.05                1.35                 1.5               0.012
       97                 1.1                 1.3                 1.5               0.012
       98                1.15                1.25                 1.5               0.012
       99                 1.2                 1.2                 1.5               0.006
      100                   1                1.45                1.45               0.003
      101                1.05                 1.4                1.45               0.012
      102                 1.1                1.35                1.45               0.012
      103                1.15                 1.3                1.45               0.012
      104                 1.2                1.25                1.45               0.012
      105                 1.4                 1.4                 1.1               0.006
      106                1.15                 1.4                1.35               0.012
      107                 1.2                 1.3                 1.4               0.012
      108                1.25                1.25                 1.4               0.006
      109                 1.2                1.35                1.35               0.006
      110                1.25                 1.3                1.35               0.012
      111                 1.3                 1.3                 1.3               0.002
      112                 1.8                 1.8                 1.8               0.002
      113                1.75                1.75                 1.8               0.006
      114                 1.7                 1.7                 1.8               0.006
      115                1.65                1.65                 1.8               0.006
      116                 1.6                 1.8                 1.6               0.006
      117                1.55                 1.8                1.55               0.006
      118                 1.5                 1.5                 1.8               0.003
      119                   1                   1                 1.8              0.0015
      120                 1.7                1.75                1.75               0.006
      121                1.65                 1.7                1.75               0.012
      122                 1.6                1.65                1.75               0.012
      123                1.55                 1.6                1.75               0.012
      124                 1.5                1.55                1.75               0.012
      125                   1                1.05                1.75               0.006
      126                 1.6                 1.7                 1.7               0.006
      127                1.55                1.65                 1.7               0.012
      128                 1.5                 1.6                 1.7               0.012
      129                1.45                1.55                 1.7               0.006
      130                   1                 1.1                 1.7               0.006
      131                1.05                1.05                 1.7               0.006
      132                 1.5                1.65                1.65               0.006
      133                1.45                 1.6                1.65               0.012
      134                   1                1.15                1.65               0.006
      135                1.05                 1.1                1.65               0.012
      136                 1.4                 1.6                 1.6               0.002
      137                   1                 1.2                 1.6               0.006
      138                1.05                1.15                 1.6               0.012
      139                 1.1                 1.1                 1.6               0.006
      140                   1                1.25                1.55               0.006
      141                1.05                 1.2                1.55               0.012
      142                 1.1                1.15                1.55               0.012
      143                   1                 1.3                 1.5               0.006
      144                1.05                1.25                 1.5               0.012
      145                 1.1                 1.2                 1.5               0.012
      146                1.15                1.15                 1.5               0.006
      147                   1                1.45                1.35               0.006
      148                1.05                 1.3                1.45               0.012
      149                 1.1                1.25                1.45               0.012
      150                1.15                 1.2                1.45               0.012
      151                   1                 1.4                 1.4               0.003
      152                1.05                1.35                 1.4               0.012
      153                 1.1                 1.3                 1.4               0.012
      154                1.15                1.25                 1.4               0.012
      155                 1.2                 1.2                 1.4               0.006
      156                 1.1                1.35                1.35               0.006
      157                1.15                 1.3                1.35               0.012
      158                 1.2                1.25                1.35               0.012
      159                 1.2                 1.3                 1.3               0.006
      160                1.25                1.25                 1.3               0.006
      161                 1.7                 1.7                 1.7               0.002
      162                1.65                1.65                 1.7               0.006
      163                 1.6                 1.6                 1.7               0.006
      164                1.55                1.55                 1.7               0.006
      165                 1.5                 1.5                 1.7               0.003
      166                   1                   1                 1.7              0.0015
      167                 1.6                1.65                1.65               0.006
      168                1.55                 1.6                1.65               0.012
      169                 1.5                1.55                1.65               0.012
      170                   1                1.05                1.65               0.006
      171                 1.5                 1.6                 1.6               0.006
      172                1.45                1.55                 1.6               0.006
      173                   1                 1.1                 1.6               0.006
      174                1.05                1.05                 1.6               0.006
      175                   1                1.15                1.55               0.006
      176                1.05                 1.1                1.55               0.012
      177                   1                 1.2                 1.5               0.006
      178                1.05                1.15                 1.5               0.012
      179                 1.1                 1.1                 1.5               0.006
      180                   1                1.25                1.45               0.006
      181                1.05                 1.2                1.45               0.012
      182                 1.1                1.15                1.45               0.012
      183                   1                 1.3                 1.4               0.006
      184                1.05                1.25                 1.4               0.012
      185                 1.1                 1.2                 1.4               0.012
      186                1.15                1.15                 1.4               0.006
      187                   1                1.35                1.35               0.003
      188                1.05                 1.3                1.35               0.012
      189                 1.1                1.25                1.35               0.012
      190                1.15                 1.2                1.35               0.012
      191                 1.1                 1.3                 1.3               0.006
      192                1.25                 1.3                1.15               0.012
      193                 1.2                 1.2                 1.3               0.006
      194                 1.2                1.25                1.25               0.006
      195                 1.6                 1.6                 1.6               0.002
      196                1.55                1.55                 1.6               0.006
      197                 1.5                 1.5                 1.6               0.003
      198                   1                   1                 1.6              0.0015
      199                 1.5                1.55                1.55               0.006
      200                   1                1.05                1.55               0.006
      201                   1                 1.1                 1.5               0.006
      202                1.05                1.05                 1.5               0.006
      203                   1                1.15                1.45               0.006
      204                1.05                 1.1                1.45               0.012
      205                   1                 1.2                 1.4               0.006
      206                1.05                1.15                 1.4               0.012
      207                 1.1                 1.1                 1.4               0.006
      208                   1                1.35                1.25               0.006
      209                1.05                 1.2                1.35               0.012
      210                 1.1                1.15                1.35               0.012
      211                   1                 1.3                 1.3               0.003
      212                1.05                1.25                 1.3               0.012
      213                 1.1                 1.3                 1.2               0.012
      214                1.15                1.15                 1.3               0.006
      215                 1.1                1.25                1.25               0.006
      216                 1.2                1.25                1.15               0.012
      217                 1.2                 1.2                 1.2               0.002
      218                 1.5                 1.5                 1.5              0.0005
      219                   1                   1                 1.5              0.0015
      220                   1                1.05                1.45               0.006
      221                   1                 1.1                 1.4               0.006
      222                1.05                1.05                 1.4               0.006
      223                   1                1.15                1.35               0.006
      224                1.05                 1.1                1.35               0.012
      225                   1                 1.3                 1.2               0.006
      226                1.15                 1.3                1.05               0.012
      227                 1.1                 1.1                 1.3               0.006
      228                   1                1.25                1.25               0.003
      229                1.05                 1.2                1.25               0.012
      230                 1.1                1.25                1.15               0.012
      231                 1.1                 1.2                 1.2               0.006
      232                1.15                1.15                 1.2               0.006
      233                   1                   1                 1.4              0.0015
      234                   1                1.05                1.35               0.006
      235                 1.1                 1.3                   1               0.006
      236                1.05                1.05                 1.3               0.006
      237                1.15                1.25                   1               0.006
      238                 1.1                1.25                1.05               0.012
      239                   1                 1.2                 1.2               0.003
      240                1.05                1.15                 1.2               0.012
      241                 1.1                 1.1                 1.2               0.006
      242                 1.1                1.15                1.15               0.006
      243                   1                   1                 1.3              0.0015
      244                1.05                1.25                   1               0.006
      245                 1.1                 1.2                   1               0.006
      246                1.05                1.05                 1.2               0.006
      247                   1                1.15                1.15               0.003
      248                1.05                 1.1                1.15               0.012
[...]
 [spin1_state]        6      20.635131       0.000000
 [spin1_state]        7      28.976935       0.000000
 [spin1_state]        8      31.842140       0.000000
 [spin1_state]        9      32.660309       0.000000
 [spin1_state]       10      36.365222       0.000000
 [spin1_state]       11      46.432280       0.000000
 [spin1_state]       12      49.256862       0.000000
 [spin1_state]       13      50.024669       0.000000
 [spin1_state]       14      51.033955       0.000000
 [spin1_state]       15      51.248605       0.000000

 237/256 kpoint (Cartesian) = 1.150000 1.250000 1.000000 (876 pws)
 [spin1_state]        1       4.507850       0.006000
 [spin1_state]        2       7.358783       0.005999
 [spin1_state]        3      10.774908       0.000000
 [spin1_state]        4      12.854091       0.000000
 [spin1_state]        5      16.255763       0.000000
 [spin1_state]        6      19.074128       0.000000
 [spin1_state]        7      28.270021       0.000000
 [spin1_state]        8      30.265056       0.000000
 [spin1_state]        9      37.002967       0.000000
 [spin1_state]       10      39.345210       0.000000
 [spin1_state]       11      42.873472       0.000000
 [spin1_state]       12      44.927920       0.000000
 [spin1_state]       13      51.150433       0.000000
 [spin1_state]       14      51.569198       0.000000
 [spin1_state]       15      53.691447       0.000000

 238/256 kpoint (Cartesian) = 1.100000 1.250000 1.050000 (872 pws)
 [spin1_state]        1       4.364250       0.012000
 [spin1_state]        2       8.599390       0.000000
 [spin1_state]        3       9.893380       0.000000
 [spin1_state]        4      13.446372       0.000000
 [spin1_state]        5      14.739292       0.000000
 [spin1_state]        6      18.937058       0.000000
 [spin1_state]        7      28.789813       0.000000
 [spin1_state]        8      32.127595       0.000000
 [spin1_state]        9      34.837013       0.000000
 [spin1_state]       10      38.589847       0.000000
 [spin1_state]       11      43.398900       0.000000
 [spin1_state]       12      46.763328       0.000000
 [spin1_state]       13      49.455230       0.000000
 [spin1_state]       14      52.352010       0.000000
 [spin1_state]       15      53.426137       0.000000

 239/256 kpoint (Cartesian) = 1.000000 1.200000 1.200000 (880 pws)
 [spin1_state]        1       5.777144       0.003000
 [spin1_state]        2       5.957714       0.003000
 [spin1_state]        3      10.702477       0.000000
 [spin1_state]        4      12.783589       0.000000
 [spin1_state]        5      17.583198       0.000000
 [spin1_state]        6      17.595505       0.000000
 [spin1_state]        7      28.200602       0.000000
 [spin1_state]        8      30.228611       0.000000
 [spin1_state]        9      39.355533       0.000000
 [spin1_state]       10      40.378895       0.000000
 [spin1_state]       11      41.397007       0.000000
 [spin1_state]       12      42.738084       0.000000
 [spin1_state]       13      51.504614       0.000000
 [spin1_state]       14      52.439265       0.000000
 [spin1_state]       15      52.482674       0.000000

 240/256 kpoint (Cartesian) = 1.050000 1.150000 1.200000 (874 pws)
 [spin1_state]        1       5.645360       0.012000
 [spin1_state]        2       7.071840       0.012000
 [spin1_state]        3       9.748575       0.000000
 [spin1_state]        4      13.306650       0.000000
 [spin1_state]        5      15.973959       0.000000
 [spin1_state]        6      17.380605       0.000000
 [spin1_state]        7      28.673542       0.000000
 [spin1_state]        8      32.098407       0.000000
 [spin1_state]        9      37.431810       0.000000
 [spin1_state]       10      40.477810       0.000000
 [spin1_state]       11      41.069563       0.000000
 [spin1_state]       12      44.042676       0.000000
 [spin1_state]       13      49.277321       0.000000
 [spin1_state]       14      53.249999       0.000000
 [spin1_state]       15      53.680375       0.000000

 241/256 kpoint (Cartesian) = 1.100000 1.100000 1.200000 (872 pws)
 [spin1_state]        1       5.575108       0.006000
 [spin1_state]        2       8.319992       0.000000
 [spin1_state]        3       8.451412       0.000000
 [spin1_state]        4      14.459993       0.000000
 [spin1_state]        5      14.584558       0.000000
 [spin1_state]        6      17.310676       0.000000
 [spin1_state]        7      28.698564       0.000000
 [spin1_state]        8      34.209733       0.000000
 [spin1_state]        9      35.209943       0.000000
 [spin1_state]       10      40.481416       0.000000
 [spin1_state]       11      40.964017       0.000000
 [spin1_state]       12      45.965532       0.000000
 [spin1_state]       13      47.184251       0.000000
 [spin1_state]       14      53.082029       0.000000
 [spin1_state]       15      54.809907       0.000000

 242/256 kpoint (Cartesian) = 1.100000 1.150000 1.150000 (878 pws)
 [spin1_state]        1       6.843238       0.006000
 [spin1_state]        2       6.996676       0.006000
 [spin1_state]        3       8.319465       0.000000
 [spin1_state]        4      14.448081       0.000000
 [spin1_state]        5      15.791389       0.000000
 [spin1_state]        6      15.876262       0.000000
 [spin1_state]        7      28.652470       0.000000
 [spin1_state]        8      34.559965       0.000000
 [spin1_state]        9      36.951406       0.000000
 [spin1_state]       10      38.247779       0.000000
 [spin1_state]       11      43.090975       0.000000
 [spin1_state]       12      44.053184       0.000000
 [spin1_state]       13      46.716415       0.000000
 [spin1_state]       14      52.979124       0.000000
 [spin1_state]       15      55.970990       0.000000

 243/256 kpoint (Cartesian) = 1.000000 1.000000 1.300000 (876 pws)
 [spin1_state]        1       3.146237       0.001500
 [spin1_state]        2      10.847768       0.000000
 [spin1_state]        3      10.847768       0.000000
 [spin1_state]        4      12.803624       0.000000
 [spin1_state]        5      13.046995       0.000000
 [spin1_state]        6      20.569133       0.000000
 [spin1_state]        7      30.775470       0.000000
 [spin1_state]        8      31.769844       0.000000
 [spin1_state]        9      31.769844       0.000000
 [spin1_state]       10      35.245611       0.000000
 [spin1_state]       11      48.219949       0.000000
 [spin1_state]       12      49.213339       0.000000
 [spin1_state]       13      49.213339       0.000000
 [spin1_state]       14      51.774646       0.000000
 [spin1_state]       15      51.774646       0.000000

 244/256 kpoint (Cartesian) = 1.050000 1.250000 1.000000 (876 pws)
 [spin1_state]        1       4.220255       0.006000
 [spin1_state]        2       9.746130       0.000000
 [spin1_state]        3      10.485836       0.000000
 [spin1_state]        4      12.556508       0.000000
 [spin1_state]        5      13.324316       0.000000
 [spin1_state]        6      18.800287       0.000000
 [spin1_state]        7      30.827409       0.000000
 [spin1_state]        8      32.334899       0.000000
 [spin1_state]        9      33.886107       0.000000
 [spin1_state]       10      36.742190       0.000000
 [spin1_state]       11      45.399134       0.000000
 [spin1_state]       12      46.981871       0.000000
 [spin1_state]       13      48.473455       0.000000
 [spin1_state]       14      51.681638       0.000000
 [spin1_state]       15      53.515223       0.000000

 245/256 kpoint (Cartesian) = 1.100000 1.200000 1.000000 (871 pws)
 [spin1_state]        1       5.431560       0.006000
 [spin1_state]        2       8.240020       0.000000
 [spin1_state]        3      10.268579       0.000000
 [spin1_state]        4      12.355790       0.000000
 [spin1_state]        5      14.384936       0.000000
 [spin1_state]        6      17.171839       0.000000
 [spin1_state]        7      30.646999       0.000000
 [spin1_state]        8      32.423620       0.000000
 [spin1_state]        9      36.506402       0.000000
 [spin1_state]       10      38.942988       0.000000
 [spin1_state]       11      42.355585       0.000000
 [spin1_state]       12      44.349771       0.000000
 [spin1_state]       13      48.224609       0.000000
 [spin1_state]       14      51.246838       0.000000
 [spin1_state]       15      54.842469       0.000000

 246/256 kpoint (Cartesian) = 1.050000 1.050000 1.200000 (874 pws)
 [spin1_state]        1       5.359908       0.006000
 [spin1_state]        2       9.419998       0.000000
 [spin1_state]        3       9.496084       0.000000
 [spin1_state]        4      12.924586       0.000000
 [spin1_state]        5      13.124454       0.000000
 [spin1_state]        6      17.101981       0.000000
 [spin1_state]        7      31.130690       0.000000
 [spin1_state]        8      33.993263       0.000000
 [spin1_state]        9      34.767156       0.000000
 [spin1_state]       10      38.368465       0.000000
 [spin1_state]       11      42.865517       0.000000
 [spin1_state]       12      45.761889       0.000000
 [spin1_state]       13      46.601355       0.000000
 [spin1_state]       14      50.655672       0.000000
 [spin1_state]       15      55.990916       0.000000

 247/256 kpoint (Cartesian) = 1.000000 1.150000 1.150000 (868 pws)
 [spin1_state]        1       6.697937       0.003000
 [spin1_state]        2       6.858520       0.003000
 [spin1_state]        3      10.196145       0.000000
 [spin1_state]        4      12.286487       0.000000
 [spin1_state]        5      15.646338       0.000000
 [spin1_state]        6      15.739931       0.000000
 [spin1_state]        7      30.581661       0.000000
 [spin1_state]        8      32.424516       0.000000
 [spin1_state]        9      38.854379       0.000000
 [spin1_state]       10      39.865753       0.000000
 [spin1_state]       11      40.908070       0.000000
 [spin1_state]       12      42.243642       0.000000
 [spin1_state]       13      48.146552       0.000000
 [spin1_state]       14      51.122083       0.000000
 [spin1_state]       15      56.090676       0.000000

 248/256 kpoint (Cartesian) = 1.050000 1.100000 1.150000 (870 pws)
 [spin1_state]        1       6.629407       0.012000
 [spin1_state]        2       8.023701       0.000000
 [spin1_state]        3       9.316277       0.000000
 [spin1_state]        4      12.876025       0.000000
 [spin1_state]        5      14.171723       0.000000
 [spin1_state]        6      15.555073       0.000000
 [spin1_state]        7      31.070479       0.000000
 [spin1_state]        8      34.353471       0.000000
 [spin1_state]        9      37.030452       0.000000
 [spin1_state]       10      40.025939       0.000000
 [spin1_state]       11      40.671779       0.000000
 [spin1_state]       12      43.475647       0.000000
 [spin1_state]       13      46.102916       0.000000
 [spin1_state]       14      50.305669       0.000000
 [spin1_state]       15      57.377493       0.000000

 249/256 kpoint (Cartesian) = 1.100000 1.100000 1.100000 (868 pws)
 [spin1_state]        1       7.884362       0.000000
 [spin1_state]        2       7.884362       0.000000
 [spin1_state]        3       8.081671       0.000000
 [spin1_state]        4      14.024436       0.000000
 [spin1_state]        5      14.024436       0.000000
 [spin1_state]        6      14.245536       0.000000
 [spin1_state]        7      31.079475       0.000000
 [spin1_state]        8      36.592019       0.000000
 [spin1_state]        9      36.592019       0.000000
 [spin1_state]       10      38.169033       0.000000
 [spin1_state]       11      42.741514       0.000000
 [spin1_state]       12      42.741514       0.000000
 [spin1_state]       13      44.474942       0.000000
 [spin1_state]       14      50.089026       0.000000
 [spin1_state]       15      59.212486       0.000000

 250/256 kpoint (Cartesian) = 1.000000 1.000000 1.200000 (872 pws)
 [spin1_state]        1       5.288055       0.001500
 [spin1_state]        2      10.123893       0.000000
 [spin1_state]        3      10.123893       0.000000
 [spin1_state]        4      12.075546       0.000000
 [spin1_state]        5      12.357633       0.000000
 [spin1_state]        6      17.032144       0.000000
 [spin1_state]        7      32.958003       0.000000
 [spin1_state]        8      33.921081       0.000000
 [spin1_state]        9      33.921081       0.000000
 [spin1_state]       10      37.190925       0.000000
 [spin1_state]       11      44.589603       0.000000
 [spin1_state]       12      45.693405       0.000000
 [spin1_state]       13      45.693405       0.000000
 [spin1_state]       14      49.621978       0.000000
 [spin1_state]       15      56.772640       0.000000

 251/256 kpoint (Cartesian) = 1.000000 1.050000 1.150000 (870 pws)
 [spin1_state]        1       6.487375       0.006000
 [spin1_state]        2       9.168397       0.000000
 [spin1_state]        3       9.906629       0.000000
 [spin1_state]        4      11.984334       0.000000
 [spin1_state]        5      12.758436       0.000000
 [spin1_state]        6      15.413382       0.000000
 [spin1_state]        7      33.141697       0.000000
 [spin1_state]        8      34.574906       0.000000
 [spin1_state]        9      36.171987       0.000000
 [spin1_state]       10      38.772412       0.000000
 [spin1_state]       11      41.945636       0.000000
 [spin1_state]       12      43.634467       0.000000
 [spin1_state]       13      45.043855       0.000000
 [spin1_state]       14      48.635628       0.000000
 [spin1_state]       15      58.597830       0.000000

 252/256 kpoint (Cartesian) = 1.000000 1.100000 1.100000 (866 pws)
 [spin1_state]        1       7.739136       0.000123
 [spin1_state]        2       7.869262       0.000001
 [spin1_state]        3       9.834193       0.000000
 [spin1_state]        4      11.925792       0.000000
 [spin1_state]        5      13.879227       0.000000
 [spin1_state]        6      14.042952       0.000000
 [spin1_state]        7      33.094636       0.000000
 [spin1_state]        8      34.691706       0.000000
 [spin1_state]        9      38.495711       0.000000
 [spin1_state]       10      39.486024       0.000000
 [spin1_state]       11      40.554649       0.000000
 [spin1_state]       12      41.717643       0.000000
 [spin1_state]       13      44.940019       0.000000
 [spin1_state]       14      48.381286       0.000000
 [spin1_state]       15      59.786185       0.000000

 253/256 kpoint (Cartesian) = 1.050000 1.050000 1.100000 (864 pws)
 [spin1_state]        1       7.728472       0.000336
 [spin1_state]        2       8.984803       0.000000
 [spin1_state]        3       9.065621       0.000000
 [spin1_state]        4      12.488439       0.000000
 [spin1_state]        5      12.695828       0.000000
 [spin1_state]        6      13.899657       0.000000
 [spin1_state]        7      33.548657       0.000000
 [spin1_state]        8      36.376132       0.000000
 [spin1_state]        9      37.023684       0.000000
 [spin1_state]       10      39.657286       0.000000
 [spin1_state]       11      40.419017       0.000000
 [spin1_state]       12      42.530250       0.000000
 [spin1_state]       13      43.448999       0.000000
 [spin1_state]       14      47.797328       0.000000
 [spin1_state]       15      61.071374       0.000000

 254/256 kpoint (Cartesian) = 1.000000 1.000000 1.100000 (860 pws)
 [spin1_state]        1       7.658277       0.000410
 [spin1_state]        2       9.689362       0.000000
 [spin1_state]        3       9.689362       0.000000
 [spin1_state]        4      11.638686       0.000000
 [spin1_state]        5      11.933658       0.000000
 [spin1_state]        6      13.825634       0.000000
 [spin1_state]        7      35.431033       0.000000
 [spin1_state]        8      36.304133       0.000000
 [spin1_state]        9      36.304133       0.000000
 [spin1_state]       10      39.163733       0.000000
 [spin1_state]       11      41.247415       0.000000
 [spin1_state]       12      42.459622       0.000000
 [spin1_state]       13      42.459622       0.000000
 [spin1_state]       14      46.870418       0.000000
 [spin1_state]       15      62.025405       0.000000

 255/256 kpoint (Cartesian) = 1.000000 1.050000 1.050000 (856 pws)
 [spin1_state]        1       8.839716       0.000000
 [spin1_state]        2       8.915044       0.000000
 [spin1_state]        3       9.616924       0.000000
 [spin1_state]        4      11.683431       0.000000
 [spin1_state]        5      12.343044       0.000000
 [spin1_state]        6      12.608532       0.000000
 [spin1_state]        7      35.709380       0.000000
 [spin1_state]        8      36.878473       0.000000
 [spin1_state]        9      38.280270       0.000000
 [spin1_state]       10      39.184873       0.000000
 [spin1_state]       11      40.341501       0.000000
 [spin1_state]       12      40.999656       0.000000
 [spin1_state]       13      41.980345       0.000000
 [spin1_state]       14      46.303672       0.000000
 [spin1_state]       15      63.472583       0.000000

 256/256 kpoint (Cartesian) = 1.000000 1.000000 1.000000 (856 pws)
 [spin1_state]        1       9.544486       0.000000
 [spin1_state]        2       9.544486       0.000000
 [spin1_state]        3       9.544486       0.000000
 [spin1_state]        4      11.493064       0.000000
 [spin1_state]        5      11.493064       0.000000
 [spin1_state]        6      11.958727       0.000000
 [spin1_state]        7      38.180237       0.000000
 [spin1_state]        8      38.208420       0.000000
 [spin1_state]        9      38.208420       0.000000
 [spin1_state]       10      38.208420       0.000000
 [spin1_state]       11      40.270306       0.000000
 [spin1_state]       12      40.270306       0.000000
 [spin1_state]       13      40.270306       0.000000
 [spin1_state]       14      45.498999       0.000000
 [spin1_state]       15      66.412464       0.000000



 --------------------------------------------
 !FINAL_ETOT_IS -57.8590490126858654 eV
 --------------------------------------------






  |CLASS_NAME---------|NAME---------------|TIME(Sec)-----|CALLS----|AVG------|PER%-------
  B              Run_pw     plane_wave_line         99.093         1     99.09     99.99%
  C             Cell_PW        opt_cells_pw          98.71         1     98.71     99.61%
  X                 FFT               FFT3D          75.11    215184      0.00     75.79%
  C            wavefunc             wfcinit           3.90         1      3.90      3.94%
  G           Hamilt_PW      diagH_subspace          16.41      1280      0.01     16.56%
  H           Hamilt_PW               h_psi          80.54     80060      0.00     81.27%
  H           Hamilt_PW                vloc          79.95     80060      0.00     80.67%
  C                Ions         opt_ions_pw          94.72         1     94.72     95.58%
  D           Electrons     self_consistent          94.72         1     94.72     95.58%
  E           Electrons             c_bands          47.52         3     15.84     47.95%
  F              Hamilt            diagH_pw          85.00      1280      0.07     85.77%
  G            Diago_CG                diag          71.73      1280      0.06     72.39%
  E           electrons             c_bands          33.06         3     11.02     33.36%
 ----------------------------------------------------------------------------------------

 CLASS_NAME---------|NAME---------------|MEMORY(MB)--------
                                         60.3141
             wavefunc                 evc        53.3789
         Charge_Pulay                Rrho         1.2014
         Charge_Pulay               dRrho         1.0512
         Charge_Pulay                drho         1.0512
 ----------------------------------------------------------
