 *********************************************************
 *                                                       *
 *                  WELCOME TO ABACUS v3.0               *
 *                                                       *
 *            'Atomic-orbital Based Ab-initio            *
 *                  Computation at UStc'                 *
 *                                                       *
 *          Website: http://abacus.ustc.edu.cn/          *
 *                                                       *
 *********************************************************
 Mon Jul 24 15:40:53 2023
 MAKE THE DIR         : OUT.blpstest/
Notice: symbol 'In_locpsp' is not an element symbol!!!! set the covalent radius to be 0.
Notice: symbol 'Sb_locpsp' is not an element symbol!!!! set the covalent radius to be 0.
 UNIFORM GRID DIM     : 45 * 45 * 45
 UNIFORM GRID DIM(BIG): 45 * 45 * 45
func,idXC_GGA_X_PBE 101
func,idXC_GGA_C_PBE 130
 DONE(0.214984   SEC) : SETUP UNITCELL
 DONE(0.246512   SEC) : SYMMETRY
 DONE(0.419264   SEC) : INIT K-POINTS
 ---------------------------------------------------------
 Self-consistent calculations for electrons
 ---------------------------------------------------------
 SPIN    KPOINTS         PROCESSORS  
 1       256             1           
 ---------------------------------------------------------
 Use plane wave basis
 ---------------------------------------------------------
 ELEMENT NATOM       XC          
 In      1           
 Sb      1           
 ---------------------------------------------------------
 Initial plane wave basis and FFT box
 ---------------------------------------------------------
 DONE(0.57961    SEC) : INIT PLANEWAVE
 MEMORY FOR PSI (MB)  : 135.703
 DONE(0.640742   SEC) : LOCAL POTENTIAL
 DONE(0.640783   SEC) : NON-LOCAL POTENTIAL
 DONE(0.640853   SEC) : INIT BASIS
 START CHARGE      : atomic
 DONE(0.793393   SEC) : INIT SCF
 ITER   ETOT(eV)       EDIFF(eV)      DRHO       TIME(s)    
 CG1    -1.947572e+02  0.000000e+00   2.091e+00  9.520e+01  
 CG2    -2.000124e+02  -5.255156e+00  3.141e-01  4.172e+01  
 CG3    -2.011975e+02  -1.185110e+00  5.204e-02  3.944e+01  
 CG4    -2.013085e+02  -1.110513e-01  2.960e-04  3.455e+01  
 CG5    -2.013142e+02  -5.688600e-03  1.073e-04  6.016e+01  
 CG6    -2.013145e+02  -2.256883e-04  8.028e-07  3.402e+01  
 CG7    -2.013145e+02  -1.137037e-05  3.517e-08  5.920e+01  
 CG8    -2.013145e+02  8.221799e-08   2.754e-08  4.355e+01  
 CG9    -2.013145e+02  -8.347596e-08  6.661e-10  3.157e+01  

  |CLASS_NAME---------|NAME---------------|TIME(Sec)-----|CALLS----|AVG------|PER%-------
                       total               440.21         17        26        1e+02     %
   Driver              driver_line         440.21         1         4.4e+02   1e+02     %
   PW_Basis            setuptransform      0.19593        1         0.2       0.045     %
   PW_Basis_K          setuptransform      0.11557        1         0.12      0.026     %
   ESolver_KS_PW       Run                 439.56         1         4.4e+02   1e+02     %
   PW_Basis            recip2real          0.18209        62        0.0029    0.041     %
   Potential           update_from_charge  1.0196         10        0.1       0.23      %
   Potential           cal_v_eff           1.0156         10        0.1       0.23      %
   PW_Basis            real2recip          0.2716         98        0.0028    0.062     %
   PotXC               cal_v_eff           0.93825        10        0.094     0.21      %
   XC_Functional       v_xc                285.64         5         57        65        %
   XC_Functional       v_xc_libxc          0.93325        10        0.093     0.21      %
   HSolverPW           solve               438.28         9         49        1e+02     %
   DiagoIterAssist     diagH_subspace      79.542         2304      0.035     18        %
   OperatorPW          hPsi                392.96         80321     0.0049    89        %
   Operator            EkineticPW          1.6734         80321     2.1e-05   0.38      %
   Operator            VeffPW              390.59         80321     0.0049    89        %
   PW_Basis_K          recip2real          204.26         107969    0.0019    46        %
   PW_Basis_K          gathers_scatterp    22.329         107969    0.00021   5.1       %
   PW_Basis_K          real2recip          157.86         98753     0.0016    36        %
   PW_Basis_K          gatherp_scatters    6.2381         98753     6.3e-05   1.4       %
   DiagoIterAssist     LAPACK_subspace     0.20773        2304      9e-05     0.047     %
   DiagoCG             diag_once           336.71         2304      0.15      76        %
   ElecStatePW         psiToRho            20.22          9         2.2       4.6       %
 ----------------------------------------------------------------------------------------

 START  Time  : Mon Jul 24 15:40:53 2023
 FINISH Time  : Mon Jul 24 15:48:13 2023
 TOTAL  Time  : 4.4e+02
 SEE INFORMATION IN : OUT.blpstest/
