 *********************************************************
 *                                                       *
 *                  WELCOME TO ABACUS v3.0               *
 *                                                       *
 *            'Atomic-orbital Based Ab-initio            *
 *                  Computation at UStc'                 *
 *                                                       *
 *          Website: http://abacus.ustc.edu.cn/          *
 *                                                       *
 *********************************************************
 Wed Apr 26 05:32:37 2023
 MAKE THE DIR         : OUT.oftest/
Notice: symbol 'mg_locpsp' is not an element symbol!!!! set the covalent radius to be 0.
 UNIFORM GRID DIM     : 45 * 45 * 45
 UNIFORM GRID DIM(BIG): 45 * 45 * 45
func,idXC_GGA_X_PBE 101
func,idXC_GGA_C_PBE 130
 DONE(0.291666   SEC) : SETUP UNITCELL
 DONE(0.342363   SEC) : SYMMETRY
 DONE(0.342612   SEC) : INIT K-POINTS
 ---------------------------------------------------------
 Self-consistent calculations for electrons
 ---------------------------------------------------------
 SPIN    KPOINTS         PROCESSORS  
 1       1               1           
 ---------------------------------------------------------
 Use plane wave basis
 ---------------------------------------------------------
 ELEMENT NATOM       XC          
 Mg      1           
 ---------------------------------------------------------
 Initial plane wave basis and FFT box
 ---------------------------------------------------------
 DONE(0.346811   SEC) : INIT BASIS
 DONE(0.346838   SEC) : INIT PHI
 DONE(0.462947   SEC) : LOCAL POTENTIAL
 DONE(0.462985   SEC) : NON-LOCAL POTENTIAL
 START CHARGE      : atomic
 DONE(0.790927   SEC) : INIT POTENTIAL
 DONE(0.791636   SEC) : INIT OPTIMIZATION
Default type: double
nnode = 10
nlayer = 3
feg_net_F = 0.540933
 DONE(0.852989   SEC) : INIT KEDF
======================== Running OFDFT ========================
Iter        Etot(Ha)          Theta      PotNorm     deltaE(Ha)
0     -8.500781160701e-01   2.000e-01   9.993e-02   -8.501e-01  
1     -8.874639416514e-01   8.563e-02   7.073e-02   -3.739e-02  
2     -8.881576774002e-01   4.877e-03   3.939e-02   -6.937e-04  
3     -8.885472982364e-01   7.227e-03   1.492e-02   -3.896e-04  
4     -8.886928926620e-01   6.782e-03   1.289e-02   -1.456e-04  
5     -8.887075664946e-01   6.082e-04   4.618e-03   -1.467e-05  
6     -8.887186425644e-01   2.166e-03   4.939e-04   -1.108e-05  
7     -8.887187470488e-01   1.995e-04   6.310e-05   -1.045e-07  
8     -8.887187484236e-01   1.748e-05   2.138e-05   -1.375e-09  

  |CLASS_NAME---------|NAME---------------|TIME(Sec)-----|CALLS----|AVG------|PER%-------
                       total               823.4          21        39        1e+02     %
   Driver              driver_line         823.38         1         8.2e+02   1e+02     %
   PW_Basis            setuptransform      0.24379        1         0.24      0.03      %
   ppcell_vl           init_vloc           0.11597        1         0.12      0.014     %
   Charge              atomic_rho          0.13164        1         0.13      0.016     %
   PW_Basis            recip2real          19.875         5028      0.004     2.4       %
   PW_Basis            gathers_scatterp    1.5947         5028      0.00032   0.19      %
   Potential           init_pot            0.19053        1         0.19      0.023     %
   Potential           update_from_charge  28.756         252       0.11      3.5       %
   Potential           cal_v_eff           28.749         252       0.11      3.5       %
   H_Hartree_pw        v_hartree           2.3543         252       0.0093    0.29      %
   PW_Basis            real2recip          20.605         5028      0.0041    2.5       %
   PW_Basis            gatherp_scatters    1.0776         5028      0.00021   0.13      %
   PotXC               cal_v_eff           26.306         252       0.1       3.2       %
   XC_Functional       v_xc                409.57         126       3.3       50        %
   XC_Functional       v_xc_libxc          26.266         252       0.1       3.2       %
   ESolver_OF          Run                 822.54         1         8.2e+02   1e+02     %
   KEDF_vW             vw_potential        2.2865         251       0.0091    0.28      %
 ----------------------------------------------------------------------------------------

 START  Time  : Wed Apr 26 05:32:37 2023
 FINISH Time  : Wed Apr 26 05:46:20 2023
 TOTAL  Time  : 8.2e+02
 SEE INFORMATION IN : OUT.oftest/
