 *********************************************************
 *                                                       *
 *                  WELCOME TO ABACUS v3.0               *
 *                                                       *
 *            'Atomic-orbital Based Ab-initio            *
 *                  Computation at UStc'                 *
 *                                                       *
 *          Website: http://abacus.ustc.edu.cn/          *
 *                                                       *
 *********************************************************
 Wed Dec 28 12:33:45 2022
 MAKE THE DIR         : OUT.blpstest/
Notice: symbol 'Li_locpsp' is not an element symbol!!!! set the covalent radius to be 0.
 UNIFORM GRID DIM     : 27 * 27 * 27
 UNIFORM GRID DIM(BIG): 27 * 27 * 27
func,idXC_GGA_X_PBE 101
func,idXC_GGA_C_PBE 130
 DONE(0.105057   SEC) : SETUP UNITCELL
 DONE(0.159956   SEC) : SYMMETRY
 DONE(0.51283    SEC) : INIT K-POINTS
 ---------------------------------------------------------
 Self-consistent calculations for electrons
 ---------------------------------------------------------
 SPIN    KPOINTS         PROCESSORS  
 1       256             1           
 ---------------------------------------------------------
 Use plane wave basis
 ---------------------------------------------------------
 ELEMENT NATOM       XC          
 Li      1           
 ---------------------------------------------------------
 Initial plane wave basis and FFT box
 ---------------------------------------------------------
 DONE(0.583212   SEC) : INIT PLANEWAVE
 MEMORY FOR PSI (MB)  : 19.7852
 DONE(0.595233   SEC) : LOCAL POTENTIAL
 DONE(0.595277   SEC) : NON-LOCAL POTENTIAL
 DONE(0.595353   SEC) : INIT BASIS
 START CHARGE      : atomic
 DONE(0.6385     SEC) : INIT SCF
 ITER   ETOT(eV)       EDIFF(eV)      DRHO       TIME(s)    
 CG1    -7.466553e+00  0.000000e+00   9.918e-03  2.016e+01  
 CG2    -7.545594e+00  -7.904075e-02  1.077e-03  5.315e+00  
 CG3    -7.546028e+00  -4.342258e-04  1.687e-07  6.148e+00  
 CG4    -7.546049e+00  -2.066889e-05  7.059e-08  1.249e+01  
 CG5    -7.546050e+00  -6.149680e-07  4.289e-09  7.691e+00  
 CG6    -7.546050e+00  -9.466551e-09  9.600e-11  8.203e+00  

  |CLASS_NAME---------|NAME---------------|TIME(Sec)-----|CALLS----|AVG------|PER%-------
                       total               60.789         17        3.6       1e+02     %
   Driver              driver_line         60.778         1         61        1e+02     %
   ESolver_KS_PW       Run                 60.117         1         60        99        %
   Potential           update_from_charge  0.20079        7         0.029     0.33      %
   Potential           cal_v_eff           0.19985        7         0.029     0.33      %
   PotXC               cal_v_eff           0.18286        7         0.026     0.3       %
   XC_Functional       v_xc                33.995         4         8.5       56        %
   XC_Functional       v_xc_libxc          0.18237        7         0.026     0.3       %
   HSolverPW           solve               59.792         7         8.5       98        %
   DiagoIterAssist     diagH_subspace      10.582         1536      0.0069    17        %
   OperatorPW          hPsi                56.153         36506     0.0015    92        %
   Operator            EkineticPW          0.18848        36506     5.2e-06   0.31      %
   Operator            VeffPW              55.785         36506     0.0015    92        %
   PW_Basis_K          recip2real          28.101         43741     0.00064   46        %
   PW_Basis_K          gathers_scatterp    1.8785         43741     4.3e-05   3.1       %
   PW_Basis_K          real2recip          26.059         42650     0.00061   43        %
   PW_Basis_K          gatherp_scatters    0.48816        42650     1.1e-05   0.8       %
   DiagoCG             diag_once           47.884         1792      0.027     79        %
   ElecStatePW         psiToRho            0.80334        7         0.11      1.3       %
 ----------------------------------------------------------------------------------------

 START  Time  : Wed Dec 28 12:33:45 2022
 FINISH Time  : Wed Dec 28 12:34:46 2022
 TOTAL  Time  : 61
 SEE INFORMATION IN : OUT.blpstest/
