 *********************************************************
 *                                                       *
 *                  WELCOME TO ABACUS v3.0               *
 *                                                       *
 *            'Atomic-orbital Based Ab-initio            *
 *                  Computation at UStc'                 *
 *                                                       *
 *          Website: http://abacus.ustc.edu.cn/          *
 *                                                       *
 *********************************************************
 Mon Jul 24 14:09:11 2023
 MAKE THE DIR         : OUT.blpstest/
Notice: symbol 'al_locpsp' is not an element symbol!!!! set the covalent radius to be 0.
Notice: symbol 'Sb_locpsp' is not an element symbol!!!! set the covalent radius to be 0.
 UNIFORM GRID DIM     : 45 * 45 * 45
 UNIFORM GRID DIM(BIG): 45 * 45 * 45
func,idXC_GGA_X_PBE 101
func,idXC_GGA_C_PBE 130
 DONE(0.168716   SEC) : SETUP UNITCELL
 DONE(0.200311   SEC) : SYMMETRY
 DONE(0.365115   SEC) : INIT K-POINTS
 ---------------------------------------------------------
 Self-consistent calculations for electrons
 ---------------------------------------------------------
 SPIN    KPOINTS         PROCESSORS  
 1       256             1           
 ---------------------------------------------------------
 Use plane wave basis
 ---------------------------------------------------------
 ELEMENT NATOM       XC          
 Al      1           
 Sb      1           
 ---------------------------------------------------------
 Initial plane wave basis and FFT box
 ---------------------------------------------------------
 DONE(0.493396   SEC) : INIT PLANEWAVE
 MEMORY FOR PSI (MB)  : 115.559
 DONE(0.546483   SEC) : LOCAL POTENTIAL
 DONE(0.546515   SEC) : NON-LOCAL POTENTIAL
 DONE(0.54657    SEC) : INIT BASIS
 START CHARGE      : atomic
 DONE(0.686074   SEC) : INIT SCF
 ITER   ETOT(eV)       EDIFF(eV)      DRHO       TIME(s)    
 CG1    -2.019547e+02  0.000000e+00   1.534e+00  1.395e+02  
 CG2    -2.052495e+02  -3.294844e+00  1.220e-01  2.792e+02  
 CG3    -2.056673e+02  -4.178382e-01  2.446e-02  3.702e+02  
 CG4    -2.057287e+02  -6.135584e-02  7.278e-05  2.994e+02  
 CG5    -2.057312e+02  -2.461770e-03  5.332e-05  3.442e+02  
 CG6    -2.057313e+02  -1.425930e-04  6.941e-07  1.042e+02  
 CG7    -2.057313e+02  -5.212315e-06  6.251e-09  6.278e+01  
 CG8    -2.057313e+02  -4.145604e-08  7.672e-09  5.869e+01  
 CG9    -2.057313e+02  -2.194487e-08  1.820e-10  3.124e+01  

  |CLASS_NAME---------|NAME---------------|TIME(Sec)-----|CALLS----|AVG------|PER%-------
                       total               1690.2         17        99        1e+02     %
   Driver              driver_line         1690.2         1         1.7e+03   1e+02     %
   PW_Basis            setuptransform      0.14434        1         0.14      0.0085    %
   ESolver_KS_PW       Run                 1689.7         1         1.7e+03   1e+02     %
   PW_Basis            recip2real          0.73731        62        0.012     0.044     %
   Potential           update_from_charge  2.5691         10        0.26      0.15      %
   Potential           cal_v_eff           2.5668         10        0.26      0.15      %
   H_Hartree_pw        v_hartree           0.25314        10        0.025     0.015     %
   PW_Basis            real2recip          0.81859        98        0.0084    0.048     %
   PotXC               cal_v_eff           2.3029         10        0.23      0.14      %
   XC_Functional       v_xc                948.37         5         1.9e+02   56        %
   XC_Functional       v_xc_libxc          2.285          10        0.23      0.14      %
   Symmetry            rho_symmetry        0.13303        10        0.013     0.0079    %
   HSolverPW           solve               1686.3         9         1.9e+02   1e+02     %
   DiagoIterAssist     diagH_subspace      349.68         2304      0.15      21        %
   OperatorPW          hPsi                1541.1         84484     0.018     91        %
   Operator            EkineticPW          3.5701         84484     4.2e-05   0.21      %
   Operator            VeffPW              1535.9         84484     0.018     91        %
   PW_Basis_K          recip2real          1001.8         112132    0.0089    59        %
   PW_Basis_K          gathers_scatterp    75.611         112132    0.00067   4.5       %
   PW_Basis_K          real2recip          512.98         102916    0.005     30        %
   PW_Basis_K          gatherp_scatters    19.83          102916    0.00019   1.2       %
   Operator            NonlocalPW          0.1672         84484     2e-06     0.0099    %
   DiagoIterAssist     LAPACK_subspace     0.48438        2304      0.00021   0.029     %
   DiagoCG             diag_once           1233.6         2304      0.54      73        %
   ElecStatePW         psiToRho            101.13         9         11        6         %
   Charge              mix_rho             0.35464        8         0.044     0.021     %
 ----------------------------------------------------------------------------------------

 START  Time  : Mon Jul 24 14:09:11 2023
 FINISH Time  : Mon Jul 24 14:37:21 2023
 TOTAL  Time  : 1.7e+03
 SEE INFORMATION IN : OUT.blpstest/
