 *********************************************************
 *                                                       *
 *                  WELCOME TO ABACUS v3.0               *
 *                                                       *
 *            'Atomic-orbital Based Ab-initio            *
 *                  Computation at UStc'                 *
 *                                                       *
 *          Website: http://abacus.ustc.edu.cn/          *
 *                                                       *
 *********************************************************
 Wed Apr 26 00:06:32 2023
 MAKE THE DIR         : OUT.oftest/
Notice: symbol 'al_locpsp' is not an element symbol!!!! set the covalent radius to be 0.
 UNIFORM GRID DIM     : 25 * 25 * 45
 UNIFORM GRID DIM(BIG): 25 * 25 * 45
func,idXC_GGA_X_PBE 101
func,idXC_GGA_C_PBE 130
 DONE(0.125132   SEC) : SETUP UNITCELL
 DONE(0.174252   SEC) : SYMMETRY
 DONE(0.174427   SEC) : INIT K-POINTS
 ---------------------------------------------------------
 Self-consistent calculations for electrons
 ---------------------------------------------------------
 SPIN    KPOINTS         PROCESSORS  
 1       1               1           
 ---------------------------------------------------------
 Use plane wave basis
 ---------------------------------------------------------
 ELEMENT NATOM       XC          
 Al      2           
 ---------------------------------------------------------
 Initial plane wave basis and FFT box
 ---------------------------------------------------------
 DONE(0.179441   SEC) : INIT BASIS
 DONE(0.179468   SEC) : INIT PHI
 DONE(0.359303   SEC) : LOCAL POTENTIAL
 DONE(0.359343   SEC) : NON-LOCAL POTENTIAL
 START CHARGE      : atomic
 DONE(0.591561   SEC) : INIT POTENTIAL
 DONE(0.59169    SEC) : INIT OPTIMIZATION
Default type: double
nnode = 10
nlayer = 3
feg_net_F = 0.540933
 DONE(0.644844   SEC) : INIT KEDF
======================== Running OFDFT ========================
Iter        Etot(Ha)          Theta      PotNorm     deltaE(Ha)
0     -3.961294596726e+00   2.000e-01   2.698e-01   -3.961e+00  
1     -4.171952397659e+00   1.152e-01   1.925e-01   -2.107e-01  
2     -4.180327326532e+00   1.438e-02   1.978e-02   -8.375e-03  
3     -4.180472757651e+00   3.195e-03   1.787e-03   -1.454e-04  
4     -4.180474192945e+00   2.256e-04   1.179e-03   -1.435e-06  
5     -4.180474858400e+00   2.615e-04   8.559e-05   -6.655e-07  
6     -4.180474861391e+00   1.133e-05   4.271e-05   -2.991e-09  

  |CLASS_NAME---------|NAME---------------|TIME(Sec)-----|CALLS----|AVG------|PER%-------
                       total               181.8          21        8.7       1e+02     %
   Driver              driver_line         181.79         1         1.8e+02   1e+02     %
   PW_Basis            setuptransform      0.10279        1         0.1       0.057     %
   ppcell_vl           init_vloc           0.17968        1         0.18      0.099     %
   Charge              atomic_rho          0.18989        1         0.19      0.1       %
   PW_Basis            recip2real          3.7994         2948      0.0013    2.1       %
   PW_Basis            gathers_scatterp    0.30031        2948      0.0001    0.17      %
   Potential           update_from_charge  5.3724         148       0.036     3         %
   Potential           cal_v_eff           5.3702         148       0.036     3         %
   H_Hartree_pw        v_hartree           0.42876        148       0.0029    0.24      %
   PW_Basis            real2recip          3.4927         2948      0.0012    1.9       %
   PW_Basis            gatherp_scatters    0.16867        2948      5.7e-05   0.093     %
   PotXC               cal_v_eff           4.9251         148       0.033     2.7       %
   XC_Functional       v_xc                90.222         74        1.2       50        %
   XC_Functional       v_xc_libxc          4.9173         148       0.033     2.7       %
   ESolver_OF          Run                 181.15         1         1.8e+02   1e+02     %
   KEDF_vW             vw_potential        0.41631        147       0.0028    0.23      %
 ----------------------------------------------------------------------------------------

 START  Time  : Wed Apr 26 00:06:32 2023
 FINISH Time  : Wed Apr 26 00:09:33 2023
 TOTAL  Time  : 1.8e+02
 SEE INFORMATION IN : OUT.oftest/
