 *********************************************************
 *                                                       *
 *                  WELCOME TO ABACUS v3.0               *
 *                                                       *
 *            'Atomic-orbital Based Ab-initio            *
 *                  Computation at UStc'                 *
 *                                                       *
 *          Website: http://abacus.ustc.edu.cn/          *
 *                                                       *
 *********************************************************
 Wed Mar 22 12:04:16 2023
 MAKE THE DIR         : OUT.blpstest/
Notice: symbol 'Ga_locpsp' is not an element symbol!!!! set the covalent radius to be 0.
Notice: symbol 'As_locpsp' is not an element symbol!!!! set the covalent radius to be 0.
 UNIFORM GRID DIM     : 36 * 36 * 36
 UNIFORM GRID DIM(BIG): 36 * 36 * 36
func,idXC_GGA_X_PBE 101
func,idXC_GGA_C_PBE 130
 DONE(0.199251   SEC) : SETUP UNITCELL
 DONE(0.231584   SEC) : SYMMETRY
 DONE(0.409864   SEC) : INIT K-POINTS
 ---------------------------------------------------------
 Self-consistent calculations for electrons
 ---------------------------------------------------------
 SPIN    KPOINTS         PROCESSORS  
 1       256             1           
 ---------------------------------------------------------
 Use plane wave basis
 ---------------------------------------------------------
 ELEMENT NATOM       XC          
 Ga      1           
 As      1           
 ---------------------------------------------------------
 Initial plane wave basis and FFT box
 ---------------------------------------------------------
 DONE(0.480907   SEC) : INIT PLANEWAVE
 MEMORY FOR PSI (MB)  : 56.1094
 DONE(0.511995   SEC) : LOCAL POTENTIAL
 DONE(0.512032   SEC) : NON-LOCAL POTENTIAL
 DONE(0.512091   SEC) : INIT BASIS
 START CHARGE      : atomic
 DONE(0.58166    SEC) : INIT SCF
 ITER   ETOT(eV)       EDIFF(eV)      DRHO       TIME(s)    
 CG1    -2.271203e+02  0.000000e+00   1.389e+00  4.067e+01  
 CG2    -2.295150e+02  -2.394670e+00  4.386e-02  1.579e+01  
 CG3    -2.296223e+02  -1.072680e-01  9.409e-04  1.353e+01  
 CG4    -2.296285e+02  -6.197526e-03  2.847e-05  1.703e+01  
 CG5    -2.296286e+02  -1.258194e-04  6.321e-07  1.603e+01  
 CG6    -2.296286e+02  -2.507668e-06  2.651e-08  1.662e+01  
 CG7    -2.296286e+02  -6.327734e-08  9.758e-11  1.565e+01  

  |CLASS_NAME---------|NAME---------------|TIME(Sec)-----|CALLS----|AVG------|PER%-------
                       total               135.93         17        8         1e+02     %
   Driver              driver_line         135.92         1         1.4e+02   1e+02     %
   PW_Basis            setuptransform      0.17736        1         0.18      0.13      %
   ESolver_KS_PW       Run                 135.41         1         1.4e+02   1e+02     %
   Potential           update_from_charge  0.32679        8         0.041     0.24      %
   Potential           cal_v_eff           0.32559        8         0.041     0.24      %
   PotXC               cal_v_eff           0.3041         8         0.038     0.22      %
   XC_Functional       v_xc                85.881         4         21        63        %
   XC_Functional       v_xc_libxc          0.30096        8         0.038     0.22      %
   HSolverPW           solve               134.98         7         19        99        %
   DiagoIterAssist     diagH_subspace      23.679         1792      0.013     17        %
   OperatorPW          hPsi                121.75         65248     0.0019    90        %
   Operator            EkineticPW          0.45768        65248     7e-06     0.34      %
   Operator            VeffPW              120.98         65248     0.0019    89        %
   PW_Basis_K          recip2real          65.557         86752     0.00076   48        %
   PW_Basis_K          gathers_scatterp    6.1149         86752     7e-05     4.5       %
   PW_Basis_K          real2recip          48.829         79584     0.00061   36        %
   PW_Basis_K          gatherp_scatters    1.4132         79584     1.8e-05   1         %
   DiagoIterAssist     LAPACK_subspace     0.15154        1792      8.5e-05   0.11      %
   DiagoCG             diag_once           105.21         1792      0.059     77        %
   ElecStatePW         psiToRho            5.2656         7         0.75      3.9       %
 ----------------------------------------------------------------------------------------

 START  Time  : Wed Mar 22 12:04:16 2023
 FINISH Time  : Wed Mar 22 12:06:32 2023
 TOTAL  Time  : 1.4e+02
 SEE INFORMATION IN : OUT.blpstest/
