                                                                                     
                             WELCOME TO ABACUS                                       
                                                                                     
               'Atomic-orbital Based Ab-initio Computation at UStc'                  
                                                                                     
                     Website: http://abacus.ustc.edu.cn/                             
                                                                                     
    Version: Parallel, in development
    Processor Number is 16
    Start Time is Wed Mar 30 22:31:52 2022
                                                                                     
 ------------------------------------------------------------------------------------

 READING GENERAL INFORMATION
                           global_out_dir = OUT.stack/
                           global_in_card = INPUT
                               pseudo_dir = 
                              orbital_dir = 
                              pseudo_type = auto
                                    DRANK = 1
                                    DSIZE = 16
                                   DCOLOR = 1
                                    GRANK = 1
                                    GSIZE = 1




 >>>>>>>>>>>>>>>>>>>>>>>>>>>>>>>>>>>>>>>>>>>>>>>>>>>>>>>>>>>>>>>>>>>>>>
 |                                                                    |
 | Reading atom information in unitcell:                              |
 | From the input file and the structure file we know the number of   |
 | different elments in this unitcell, then we list the detail        |
 | information for each element, especially the zeta and polar atomic |
 | orbital number for each element. The total atom number is counted. |
 | We calculate the nearest atom distance for each atom and show the  |
 | Cartesian and Direct coordinates for each atom. We list the file   |
 | address for atomic orbitals. The volume and the lattice vectors    |
 | in real and reciprocal space is also shown.                        |
 |                                                                    |
 <<<<<<<<<<<<<<<<<<<<<<<<<<<<<<<<<<<<<<<<<<<<<<<<<<<<<<<<<<<<<<<<<<<<<<




 READING UNITCELL INFORMATION
                                    ntype = 1
                 atom label for species 1 = Al
                  lattice constant (Bohr) = 7.49843
              lattice constant (Angstrom) = 3.968

 READING ATOM TYPE 1
                               atom label = Al
                      L=0, number of zeta = 1
                      L=1, number of zeta = 1
                      L=2, number of zeta = 1
             number of atom for this type = 22
                      start magnetization = FALSE
                      start magnetization = FALSE
                      start magnetization = FALSE
                      start magnetization = FALSE
                      start magnetization = FALSE
                      start magnetization = FALSE
                      start magnetization = FALSE
                      start magnetization = FALSE
                      start magnetization = FALSE
                      start magnetization = FALSE
                      start magnetization = FALSE
                      start magnetization = FALSE
                      start magnetization = FALSE
                      start magnetization = FALSE
                      start magnetization = FALSE
                      start magnetization = FALSE
                      start magnetization = FALSE
                      start magnetization = FALSE
                      start magnetization = FALSE
                      start magnetization = FALSE
                      start magnetization = FALSE
                      start magnetization = FALSE

                        TOTAL ATOM NUMBER = 22

 DIRECT COORDINATES
         atom                   x                   y                   z                 mag                  vx                  vy                  vz
     taud_Al1                   0                   0         0.000169281                   0                   0                   0                   0
     taud_Al2            0.333333            0.333333           0.0453774                   0                   0                   0                   0
     taud_Al3            0.666667            0.666667           0.0908657                   0                   0                   0                   0
     taud_Al4                   0                   0            0.136001                   0                   0                   0                   0
     taud_Al5            0.333333            0.333333            0.181472                   0                   0                   0                   0
     taud_Al6                   0                   0            0.227265                   0                   0                   0                   0
     taud_Al7                 0.4                 0.4            0.273173                   0                   0                   0                   0
     taud_Al8            0.733333            0.733333            0.318325                   0                   0                   0                   0
     taud_Al9           0.0666667           0.0666667            0.363782                   0                   0                   0                   0
    taud_Al10                 0.4                 0.4            0.408968                   0                   0                   0                   0
    taud_Al11            0.733333            0.733333            0.454545                   0                   0                   0                   0
    taud_Al12                 0.4                 0.4            0.500123                   0                   0                   0                   0
    taud_Al13           0.0666667           0.0666667            0.545309                   0                   0                   0                   0
    taud_Al14            0.733333            0.733333            0.590766                   0                   0                   0                   0
    taud_Al15                 0.4                 0.4            0.635918                   0                   0                   0                   0
    taud_Al16                   0                   0            0.681826                   0                   0                   0                   0
    taud_Al17            0.333333            0.333333            0.727619                   0                   0                   0                   0
    taud_Al18                   0                   0             0.77309                   0                   0                   0                   0
    taud_Al19            0.666667            0.666667            0.818225                   0                   0                   0                   0
    taud_Al20            0.333333            0.333333            0.863714                   0                   0                   0                   0
    taud_Al21                   0                   0            0.908922                   0                   0                   0                   0
    taud_Al22            0.666667            0.666667            0.954545                   0                   0                   0                   0


                          Volume (Bohr^3) = 2318.86
                             Volume (A^3) = 343.619

 Lattice vectors: (Cartesian coordinate: in unit of a_0)
            +0.707107                  +0                  +0
            +0.353553           +0.612372                  +0
                   +0                  +0            +12.7017
 Reciprocal vectors: (Cartesian coordinate: in unit of 2 pi/a_0)
             +1.41421           -0.816497                  +0
                   +0            +1.63299                  -0
                   +0                  -0          +0.0787296




 >>>>>>>>>>>>>>>>>>>>>>>>>>>>>>>>>>>>>>>>>>>>>>>>>>>>>>>>>>>>>>>>>>>>>>
 |                                                                    |
 | Reading pseudopotentials files:                                    |
 | The pseudopotential file is in UPF format. The 'NC' indicates that |
 | the type of pseudopotential is 'norm conserving'. Functional of    |
 | exchange and correlation is decided by 4 given parameters in UPF   |
 | file.  We also read in the 'core correction' if there exists.      |
 | Also we can read the valence electrons number and the maximal      |
 | angular momentum used in this pseudopotential. We also read in the |
 | trail wave function, trail atomic density and local-pseudopotential|
 | on logrithmic grid. The non-local pseudopotential projector is also|
 | read in if there is any.                                           |
 |                                                                    |
 <<<<<<<<<<<<<<<<<<<<<<<<<<<<<<<<<<<<<<<<<<<<<<<<<<<<<<<<<<<<<<<<<<<<<<




                PAO radial cut off (Bohr) = 15

 Read in pseudopotential file is Al_ONCV_PBE-1.2.upf
                     pseudopotential type = NC
                            functional Ex = PBE
                            functional Ec = 
                          functional GCEx = 
                          functional GCEc = 
                 nonlocal core correction = 0
                        valence electrons = 11
                                     lmax = 1
                           number of zeta = 0
                     number of projectors = 4
                           L of projector = 0
                           L of projector = 0
                           L of projector = 1
                           L of projector = 1
     initial pseudo atomic orbital number = 0
                                   NLOCAL = 198

 SETUP THE ELECTRONS NUMBER
            electron number of element Al = 11
      total electron number of element Al = 242
                           occupied bands = 121
                                   NBANDS = 130
 DONE : SETUP UNITCELL Time : 0.0113996 (SEC)





 >>>>>>>>>>>>>>>>>>>>>>>>>>>>>>>>>>>>>>>>>>>>>>>>>>>>>>>>>>>>>>>>>>>>>>
 |                                                                    |
 | Doing symmetry analysis:                                           |
 | We calculate the norm of 3 vectors and the angles between them,    |
 | the type of Bravais lattice is given. We can judge if the unticell |
 | is a primitive cell. Finally we give the point group operation for |
 | this unitcell. We we use the point group operations to do symmetry |
 | analysis on given k-point mesh and the charge density.             |
 |                                                                    |
 <<<<<<<<<<<<<<<<<<<<<<<<<<<<<<<<<<<<<<<<<<<<<<<<<<<<<<<<<<<<<<<<<<<<<<




 LATTICE VECTORS: (CARTESIAN COORDINATE: IN UNIT OF A0)
            +0.707107                  +0                  +0
            +0.353553           +0.612372                  +0
                   +0                  +0            +12.7017
                       right hand lattice = 1
                                   NORM_A = 0.707107
                                   NORM_B = 0.707107
                                   NORM_C = 12.7017
                           ALPHA (DEGREE) = 60
                           BETA  (DEGREE) = 90
                           GAMMA (DEGREE) = 90
                             BRAVAIS TYPE = 4
                     BRAVAIS LATTICE NAME = 04. Hexagonal cell
 STANDARD LATTICE VECTORS: (CARTESIAN COORDINATE: IN UNIT OF A0)
            +0.707107                  +0                  +0
            +0.353553           +0.612372                  +0
                   +0                  +0            +12.7017
                                    IBRAV = 4
                                  BRAVAIS = HEXAGONAL CELL
                       LATTICE CONSTANT A = 38.1903
                                C/A RATIO = 0.666981
                                    ibrav = 4
                        ROTATION MATRICES = 24
              PURE POINT GROUP OPERATIONS = 2
                   SPACE GROUP OPERATIONS = 2
                                       C2 = 0
                                       C3 = 0
                                       C4 = 0
                                       C6 = 0
                                       S1 = 1
                                       S3 = 0
                                       S4 = 0
                                       S6 = 0
                              POINT GROUP = C_1h
 DONE : SYMMETRY Time : 0.0458015 (SEC)





 >>>>>>>>>>>>>>>>>>>>>>>>>>>>>>>>>>>>>>>>>>>>>>>>>>>>>>>>>>>>>>>>>>>>>>
 |                                                                    |
 | Setup K-points                                                     |
 | We setup the k-points according to input parameters.               |
 | The reduced k-points are set according to symmetry operations.     |
 | We treat the spin as another set of k-points.                      |
 |                                                                    |
 <<<<<<<<<<<<<<<<<<<<<<<<<<<<<<<<<<<<<<<<<<<<<<<<<<<<<<<<<<<<<<<<<<<<<<





 SETUP K-POINTS
                                    nspin = 1
                   Input type of k points = Monkhorst-Pack(Gamma)
                                   nkstot = 100
                               nkstot_ibz = 31
      IBZ             DirectX             DirectY             DirectZ              Weight    ibz2bz
        1                   0                   0                 0.5                0.01         0
        2                   0                 0.9                 0.5                0.04         1
        3                 0.8                   0                 0.5                0.04         2
        4                   0                 0.7                 0.5                0.04         3
        5                 0.6                   0                 0.5                0.04         4
        6                   0                 0.5                 0.5                0.02         5
        7                 0.9                 0.9                 0.5                0.02        11
        8                 0.9                 0.8                 0.5                0.04        12
        9                 0.9                 0.7                 0.5                0.04        13
       10                 0.9                 0.6                 0.5                0.04        14
       11                 0.9                 0.5                 0.5                0.04        15
       12                 0.9                 0.4                 0.5                0.04        16
       13                 0.9                 0.3                 0.5                0.04        17
       14                 0.9                 0.2                 0.5                0.04        18
       15                 0.9                 0.1                 0.5                0.02        19
       16                 0.8                 0.8                 0.5                0.02        22
       17                 0.8                 0.7                 0.5                0.04        23
       18                 0.8                 0.6                 0.5                0.04        24
       19                 0.8                 0.5                 0.5                0.04        25
       20                 0.8                 0.4                 0.5                0.04        26
       21                 0.8                 0.3                 0.5                0.04        27
       22                 0.2                 0.8                 0.5                0.02        28
       23                 0.7                 0.7                 0.5                0.02        33
       24                 0.7                 0.6                 0.5                0.04        34
       25                 0.7                 0.5                 0.5                0.04        35
       26                 0.7                 0.4                 0.5                0.04        36
       27                 0.7                 0.3                 0.5                0.02        37
       28                 0.6                 0.6                 0.5                0.02        44
       29                 0.6                 0.5                 0.5                0.04        45
       30                 0.4                 0.6                 0.5                0.02        46
       31                 0.5                 0.5                 0.5                0.01        55
                               nkstot now = 31

  KPOINTS            DIRECT_X            DIRECT_Y            DIRECT_Z              WEIGHT
        1                   0                   0                 0.5                0.01
        2                   0                 0.9                 0.5                0.04
        3                 0.8                   0                 0.5                0.04
        4                   0                 0.7                 0.5                0.04
        5                 0.6                   0                 0.5                0.04
        6                   0                 0.5                 0.5                0.02
        7                 0.9                 0.9                 0.5                0.02
        8                 0.9                 0.8                 0.5                0.04
        9                 0.9                 0.7                 0.5                0.04
       10                 0.9                 0.6                 0.5                0.04
       11                 0.9                 0.5                 0.5                0.04
       12                 0.9                 0.4                 0.5                0.04
       13                 0.9                 0.3                 0.5                0.04
       14                 0.9                 0.2                 0.5                0.04
       15                 0.9                 0.1                 0.5                0.02
       16                 0.8                 0.8                 0.5                0.02
       17                 0.8                 0.7                 0.5                0.04
       18                 0.8                 0.6                 0.5                0.04
       19                 0.8                 0.5                 0.5                0.04
       20                 0.8                 0.4                 0.5                0.04
       21                 0.8                 0.3                 0.5                0.04
       22                 0.2                 0.8                 0.5                0.02
       23                 0.7                 0.7                 0.5                0.02
       24                 0.7                 0.6                 0.5                0.04
       25                 0.7                 0.5                 0.5                0.04
       26                 0.7                 0.4                 0.5                0.04
       27                 0.7                 0.3                 0.5                0.02
       28                 0.6                 0.6                 0.5                0.02
       29                 0.6                 0.5                 0.5                0.04
       30                 0.4                 0.6                 0.5                0.02
       31                 0.5                 0.5                 0.5                0.01

           k-point number in this process = 31
       minimum distributed K point number = 31

  KPOINTS         CARTESIAN_X         CARTESIAN_Y         CARTESIAN_Z              WEIGHT
        1                   0                   0           0.0393648                0.02
        2                   0             1.46969           0.0393648                0.08
        3             1.13137           -0.653197           0.0393648                0.08
        4                   0              1.1431           0.0393648                0.08
        5            0.848528           -0.489898           0.0393648                0.08
        6                   0            0.816497           0.0393648                0.04
        7             1.27279            0.734847           0.0393648                0.04
        8             1.27279            0.571548           0.0393648                0.08
        9             1.27279            0.408248           0.0393648                0.08
       10             1.27279            0.244949           0.0393648                0.08
       11             1.27279           0.0816497           0.0393648                0.08
       12             1.27279          -0.0816497           0.0393648                0.08
       13             1.27279           -0.244949           0.0393648                0.08
       14             1.27279           -0.408248           0.0393648                0.08
       15             1.27279           -0.571548           0.0393648                0.04
       16             1.13137            0.653197           0.0393648                0.04
       17             1.13137            0.489898           0.0393648                0.08
       18             1.13137            0.326599           0.0393648                0.08
       19             1.13137            0.163299           0.0393648                0.08
       20             1.13137                   0           0.0393648                0.08
       21             1.13137           -0.163299           0.0393648                0.08
       22            0.282843              1.1431           0.0393648                0.04
       23            0.989949            0.571548           0.0393648                0.04
       24            0.989949            0.408248           0.0393648                0.08
       25            0.989949            0.244949           0.0393648                0.08
       26            0.989949           0.0816497           0.0393648                0.08
       27            0.989949          -0.0816497           0.0393648                0.04
       28            0.848528            0.489898           0.0393648                0.04
       29            0.848528            0.326599           0.0393648                0.08
       30            0.565685            0.653197           0.0393648                0.04
       31            0.707107            0.408248           0.0393648                0.02

  KPOINTS            DIRECT_X            DIRECT_Y            DIRECT_Z              WEIGHT
        1                   0                   0                 0.5                0.02
        2                   0                 0.9                 0.5                0.08
        3                 0.8                   0                 0.5                0.08
        4                   0                 0.7                 0.5                0.08
        5                 0.6                   0                 0.5                0.08
        6                   0                 0.5                 0.5                0.04
        7                 0.9                 0.9                 0.5                0.04
        8                 0.9                 0.8                 0.5                0.08
        9                 0.9                 0.7                 0.5                0.08
       10                 0.9                 0.6                 0.5                0.08
       11                 0.9                 0.5                 0.5                0.08
       12                 0.9                 0.4                 0.5                0.08
       13                 0.9                 0.3                 0.5                0.08
       14                 0.9                 0.2                 0.5                0.08
       15                 0.9                 0.1                 0.5                0.04
       16                 0.8                 0.8                 0.5                0.04
       17                 0.8                 0.7                 0.5                0.08
       18                 0.8                 0.6                 0.5                0.08
       19                 0.8                 0.5                 0.5                0.08
       20                 0.8                 0.4                 0.5                0.08
       21                 0.8                 0.3                 0.5                0.08
       22                 0.2                 0.8                 0.5                0.04
       23                 0.7                 0.7                 0.5                0.04
       24                 0.7                 0.6                 0.5                0.08
       25                 0.7                 0.5                 0.5                0.08
       26                 0.7                 0.4                 0.5                0.08
       27                 0.7                 0.3                 0.5                0.04
       28                 0.6                 0.6                 0.5                0.04
       29                 0.6                 0.5                 0.5                0.08
       30                 0.4                 0.6                 0.5                0.04
       31                 0.5                 0.5                 0.5                0.02
 DONE : INIT K-POINTS Time : 0.0492138 (SEC)





 >>>>>>>>>>>>>>>>>>>>>>>>>>>>>>>>>>>>>>>>>>>>>>>>>>>>>>>>>>>>>>>>>>>>>>
 |                                                                    |
 | Setup plane waves:                                                 |
 | Use the energy cutoff and the lattice vectors to generate the      |
 | dimensions of FFT grid. The number of FFT grid on each processor   |
 | is 'nrxx'. The number of plane wave basis in reciprocal space is   |
 | different for charege/potential and wave functions. We also set    |
 | the 'sticks' for the parallel of FFT.                              |
 |                                                                    |
 <<<<<<<<<<<<<<<<<<<<<<<<<<<<<<<<<<<<<<<<<<<<<<<<<<<<<<<<<<<<<<<<<<<<<<





 SETUP THE PLANE WAVE BASIS
     energy cutoff for wavefunc (unit:Ry) = 40
            [fft grid for wave functions] = 24, 24, 384
          [fft grid for charge/potential] = 24, 24, 384
                      [fft grid division] = 1, 1, 1
      [big fft grid for charge/potential] = 24, 24, 384
                                     nbxx = 13824
                                     nrxx = 13824

 SETUP PLANE WAVES FOR CHARGE/POTENTIAL
                    number of plane waves = 79607
                         number of sticks = 313

 SETUP PLANE WAVES FOR WAVE FUNCTIONS
                    number of plane waves = 16861
                         number of sticks = 109

 PARALLEL PW FOR CHARGE/POTENTIAL
     PROC   COLUMNS(POT)             PW
        1             19           4955
        2             19           4955
        3             20           4994
        4             19           4957
        5             19           4957
        6             19           4955
        7             19           4955
        8             19           4955
        9             20           4970
       10             20           5004
       11             20           5004
       12             20           4970
       13             20           5004
       14             20           5000
       15             20           4970
       16             20           5002
 --------------- sum -------------------
       16            313          79607

 PARALLEL PW FOR WAVE FUNCTIONS
     PROC     COLUMNS(W)             PW
        1              7           1063
        2              7           1065
        3              7           1057
        4              7           1045
        5              7           1045
        6              6           1026
        7              7           1061
        8              7           1051
        9              7           1051
       10              7           1085
       11              7           1085
       12              6           1020
       13              6           1024
       14              7           1061
       15              7           1061
       16              7           1061
 --------------- sum -------------------
       16            109          16861

 SETUP COORDINATES OF PLANE WAVES
              number of total plane waves = 79607

 SETUP COORDINATES OF PLANE WAVES
                            number of |g| = 2245
                                  max |g| = 227.764
                                  min |g| = 0
 DONE : INIT PLANEWAVE Time : 0.0905775 (SEC)

                                     npwx = 748

 SETUP NONLOCAL PSEUDOPOTENTIALS IN PLANE WAVE BASIS
 Al non-local projectors:
 projector 1 L=0
 projector 2 L=0
 projector 3 L=1
 projector 4 L=1
      TOTAL NUMBER OF NONLOCAL PROJECTORS = 176
 DONE : LOCAL POTENTIAL Time : 0.163802 (SEC)


 Init Non-Local PseudoPotential table : 
 Init Non-Local-Pseudopotential done.
 DONE : NON-LOCAL POTENTIAL Time : 0.17559 (SEC)

                                start_pot = atomic
 DONE : INIT POTENTIAL Time : 0.217582 (SEC)


 Make real space PAO into reciprocal space.
       max mesh points in Pseudopotential = 601
     dq(describe PAO in reciprocal space) = 0.01
                                    max q = 764

 number of pseudo atomic orbitals for Al is 0
 DONE : INIT BASIS Time : 9.876 (SEC)


 -------------------------------------------
 SELF-CONSISTENT
 -------------------------------------------

 PW ALGORITHM --------------- ION=   1  ELEC=   1--------------------------------
  K-point    CG iter num      Time(Sec)
        1       8.515385       2.519690
        2       8.538462       2.576705
        3       8.507692       2.567896
        4       8.530769       2.581791
        5       8.484615       2.536932
        6       8.492308       2.827256
        7       8.607692       2.719745
        8       8.453846       2.569335
        9       8.492308       2.633127
       10       8.592308       2.661857
       11       8.515385       2.582091
       12       8.507692       2.542384
       13       8.492308       2.550079
       14       8.600000       2.603532
       15       8.453846       2.586941
       16       8.515385       2.578042
       17       8.576923       2.627826
       18       8.392308       2.571294
       19       8.569231       2.607360
       20       8.438462       2.527209
       21       8.438462       2.537150
       22       8.500000       2.576663
       23       8.500000       2.597124
       24       8.561538       2.583707
       25       8.515385       2.565947
       26       8.361538       2.491328
       27       8.446154       2.553488
       28       8.530769       2.553255
       29       8.546154       2.579612
       30       8.530769       2.567727
       31       8.553846       2.557371
 Notice: Threshold on eigenvalues was too large.
 dr2=0.458604 < diago_error=2.420000
 Origin ETHR = 0.010000
 New    ETHR = 0.000190
  K-point    CG iter num      Time(Sec)
        1       4.523077       1.560747
        2       4.838462       1.656991
        3       5.076923       1.737334
        4       5.507692       1.916528
        5       5.723077       2.009541
        6       6.200000       2.096836
        7       4.600000       1.633639
        8       5.276923       1.853496
        9       5.461538       2.007645
       10       5.738462       2.028288
       11       5.792308       2.004529
       12       5.984615       2.108563
       13       5.884615       2.133557
       14       5.115385       1.772022
       15       4.869231       1.751597
       16       5.130769       1.797950
       17       5.384615       1.923116
       18       6.023077       2.109579
       19       6.207692       2.243880
       20       6.861538       2.384345
       21       6.353846       2.217387
       22       6.084615       2.148945
       23       5.661538       2.042920
       24       5.684615       1.966582
       25       6.200000       2.157893
       26       7.484615       2.672582
       27       7.215385       2.523362
       28       5.861538       2.019598
       29       6.153846       2.155693
       30       6.569231       2.266762
       31       6.546154       2.251147

 Density error is 0.473046817821
                          Error Threshold = 0.000189505794

       Energy                       Rydberg                            eV
   E_KohnSham            -3043.953381934750           -41415.110440682860
     E_Harris            -3044.016007316344           -41415.962502711962
      E_Fermi               +0.877619993554              +11.940632591054

 PW ALGORITHM --------------- ION=   1  ELEC=   2--------------------------------
  K-point    CG iter num      Time(Sec)
        1       2.000000       0.590920
        2       2.046154       0.593245
        3       2.000000       0.613156
        4       2.000000       0.577521
        5       2.000000       0.604410
        6       2.000000       0.577244
        7       2.030769       0.628270
        8       2.092308       0.627589
        9       2.023077       0.608802
       10       2.000000       0.589980
       11       2.000000       0.601288
       12       2.000000       0.588003
       13       2.000000       0.612531
       14       2.000000       0.590596
       15       2.000000       0.612380
       16       2.000000       0.596079
       17       2.000000       0.645017
       18       2.115385       0.675924
       19       2.000000       0.592111
       20       2.000000       0.592476
       21       2.000000       0.596384
       22       2.069231       0.614716
       23       2.000000       0.594406
       24       2.000000       0.591887
       25       2.000000       0.591299
       26       2.000000       0.593049
       27       2.023077       0.601465
       28       2.015385       0.598448
       29       2.000000       0.595379
       30       2.038462       0.603879
       31       2.000000       0.594842

 Density error is 0.786604676921
                          Error Threshold = 0.000195473892

       Energy                       Rydberg                            eV
   E_KohnSham            -3043.341151232608           -41406.780614643190
     E_Harris            -3043.964464482212           -41415.261226476709
      E_Fermi               +0.876610587934              +11.926898923032

 PW ALGORITHM --------------- ION=   1  ELEC=   3--------------------------------
  K-point    CG iter num      Time(Sec)
        1       6.615385       2.260046
        2       7.676923       2.642191
        3       7.853846       2.708651
        4       8.000000       2.754285
        5       7.815385       2.700229
        6       8.300000       2.834188
        7       7.438462       2.601271
        8       7.076923       2.448446
        9       7.523077       2.580756
       10       7.830769       2.705672
       11       8.000000       2.783064
       12       7.884615       2.729606
       13       7.707692       2.649425
       14       7.623077       2.665525
       15       7.192308       2.497523
       16       7.723077       2.694766
       17       7.700000       2.648966
       18       8.015385       3.255762
       19       8.246154       3.193257
       20       8.461538       3.249871
       21       8.307692       2.924958
       22       7.384615       2.964855
       23       8.007692       3.168662
       24       7.938462       3.093579
       25       8.023077       3.126532
       26       8.430769       2.951898
       27       9.038462       3.205753
       28       8.200000       2.807948
       29       7.830769       2.706106
       30       8.884615       3.032789
       31       8.069231       2.766675

 Density error is 4662.896011889344
                          Error Threshold = 0.000195473892

       Energy                       Rydberg                            eV
   E_KohnSham            -3023.301302577215           -41134.124485872206
     E_Harris            -3080.749491048280           -41915.747188856600
      E_Fermi               +0.475925645067               +6.475300597238

 PW ALGORITHM --------------- ION=   1  ELEC=   4--------------------------------
  K-point    CG iter num      Time(Sec)
        1       6.900000       2.341031
        2       6.807692       2.274541
        3       7.323077       2.496548
        4       7.607692       2.521885
        5       8.223077       2.770965
        6       8.161538       2.747230
        7       6.715385       2.275491
        8       7.115385       2.437258
        9       7.638462       2.618304
       10       7.969231       2.688404
       11       8.000000       2.696899
       12       8.215385       2.800058
       13       8.053846       2.743447
       14       7.492308       2.541635
       15       7.046154       2.416868
       16       7.192308       2.488558
       17       7.761538       2.643819
       18       7.700000       2.628509
       19       8.530769       2.929744
       20       8.107692       2.738431
       21       8.361538       2.864567
       22       7.853846       2.640563
       23       7.446154       2.536105
       24       8.038462       2.712193
       25       8.538462       2.900031
       26       8.546154       2.912102
       27       8.100000       2.700884
       28       7.923077       2.682453
       29       7.938462       2.703496
       30       8.200000       2.787597
       31       8.238462       2.786558

 Density error is 600.547953293202
                          Error Threshold = 0.000195473892

       Energy                       Rydberg                            eV
   E_KohnSham            -3034.762668289311           -41290.064366418534
     E_Harris            -3048.995969991362           -41483.718370919538
      E_Fermi               +0.833935912721              +11.346280179832

 PW ALGORITHM --------------- ION=   1  ELEC=   5--------------------------------
  K-point    CG iter num      Time(Sec)
        1       3.776923       1.270246
        2       4.838462       1.709733
        3       4.930769       1.706402
        4       5.576923       1.892712
        5       6.438462       2.191723
        6       6.330769       2.172337
        7       4.861538       1.699987
        8       4.615385       1.598494
        9       5.500000       1.900965
       10       6.661538       2.367736
       11       6.823077       2.373188
       12       6.900000       2.409449
       13       6.553846       2.267054
       14       5.446154       1.908035
       15       4.730769       1.613318
       16       5.007692       1.752025
       17       5.384615       1.856465
       18       6.084615       2.119118
       19       6.692308       2.309857
       20       7.153846       2.469400
       21       6.930769       2.389184
       22       5.907692       1.997610
       23       5.576923       1.922211
       24       6.546154       2.276005
       25       7.053846       2.433076
       26       6.469231       2.243098
       27       6.761538       2.335978
       28       6.430769       2.233865
       29       6.730769       2.326627
       30       7.007692       2.407486
       31       6.500000       2.218218

 Density error is 1962.044366550461
                          Error Threshold = 0.000195473892

       Energy                       Rydberg                            eV
   E_KohnSham            -3036.150936178715           -41308.952720064874
     E_Harris            -3050.525160762079           -41504.524078730297
      E_Fermi               +0.823658168319              +11.206444293380

 PW ALGORITHM --------------- ION=   1  ELEC=   6--------------------------------
  K-point    CG iter num      Time(Sec)
        1       3.715385       1.247063
        2       4.153846       1.414363
        3       5.030769       1.753708
        4       5.546154       1.884493
        5       6.323077       2.142875
        6       6.315385       2.163739
        7       4.053846       1.391503
        8       4.523077       1.589049
        9       5.192308       1.804864
       10       5.984615       2.084729
       11       6.976923       2.406206
       12       6.961538       2.398001
       13       6.023077       2.088896
       14       5.292308       1.840195
       15       4.492308       1.545558
       16       4.861538       1.721713
       17       5.169231       1.788525
       18       6.046154       2.130253
       19       7.207692       2.483655
       20       9.146154       3.102495
       21       7.069231       2.435307
       22       5.961538       2.038196
       23       5.507692       1.913604
       24       5.900000       2.017881
       25       7.192308       2.478909
       26       9.161538       3.106440
       27       9.576923       3.266176
       28       6.338462       2.183630
       29       6.884615       2.348951
       30       8.638462       2.883007
       31       6.623077       2.252221

 Density error is 16.485677467634
                          Error Threshold = 0.000195473892

       Energy                       Rydberg                            eV
   E_KohnSham            -3043.580805953679           -41410.041284402359
     E_Harris            -3043.844373539639           -41413.627305379516
      E_Fermi               +0.869641401727              +11.832078280201

 PW ALGORITHM --------------- ION=   1  ELEC=   7--------------------------------
  K-point    CG iter num      Time(Sec)
        1       2.538462       0.778865
        2       3.015385       1.010275
        3       3.169231       1.065274
        4       2.900000       0.932737
        5       2.661538       0.833243
        6       2.661538       0.820334
        7       2.961538       0.976471
        8       3.353846       1.131125
        9       3.269231       1.088717
       10       2.907692       0.949439
       11       2.807692       0.893807
       12       2.815385       0.895041
       13       2.884615       0.942619
       14       3.338462       1.119035
       15       3.453846       1.162483
       16       3.115385       1.033881
       17       3.361538       1.117956
       18       4.407692       1.497604
       19       3.869231       1.300219
       20       3.807692       1.281196
       21       3.861538       1.296866
       22       4.538462       1.557106
       23       2.861538       0.913198
       24       2.838462       0.933020
       25       3.900000       1.306731
       26       3.946154       1.324460
       27       4.161538       1.424552
       28       2.553846       0.799741
       29       2.730769       0.891751
       30       3.415385       1.128832
       31       2.700000       0.847908

 Density error is 57.356070842967
                          Error Threshold = 0.000195473892

       Energy                       Rydberg                            eV
   E_KohnSham            -3043.540896695132           -41409.498291083168
     E_Harris            -3044.002658464153           -41415.780882260406
      E_Fermi               +0.868303984021              +11.813881778787

 PW ALGORITHM --------------- ION=   1  ELEC=   8--------------------------------
  K-point    CG iter num      Time(Sec)
        1       2.338462       0.744507
        2       2.807692       0.879901
        3       3.446154       1.155223
        4       2.853846       0.890743
        5       2.530769       0.813593
        6       2.507692       0.772318
        7       2.723077       0.869497
        8       3.346154       1.114505
        9       3.723077       1.251362
       10       2.846154       0.929263
       11       2.561538       0.820208
       12       2.546154       0.796945
       13       2.753846       0.886094
       14       3.707692       1.249812
       15       3.430769       1.158340
       16       3.453846       1.161057
       17       3.238462       1.075126
       18       4.669231       1.599919
       19       3.938462       1.342390
       20       3.538462       1.184749
       21       3.823077       1.294380
       22       4.230769       1.439585
       23       2.800000       0.903574
       24       2.815385       0.894585
       25       3.884615       1.361964
       26       3.561538       1.188403
       27       3.453846       1.149420
       28       2.530769       0.817327
       29       2.692308       0.846489
       30       3.423077       1.141564
       31       2.553846       0.795847

 Density error is 9.784982420376
                          Error Threshold = 0.000195473892

       Energy                       Rydberg                            eV
   E_KohnSham            -3043.610865118767           -41410.450260324687
     E_Harris            -3043.905807552108           -41414.463158000101
      E_Fermi               +0.866978208681              +11.795843679901

 PW ALGORITHM --------------- ION=   1  ELEC=   9--------------------------------
  K-point    CG iter num      Time(Sec)
        1       2.361538       0.722352
        2       2.784615       0.872229
        3       3.076923       1.021229
        4       2.546154       0.807180
        5       2.369231       0.708687
        6       2.323077       0.720962
        7       2.892308       0.953214
        8       3.376923       1.134402
        9       2.723077       0.869724
       10       2.492308       0.773541
       11       2.361538       0.742868
       12       2.369231       0.717578
       13       2.500000       0.797634
       14       2.746154       0.882194
       15       3.207692       1.069315
       16       3.030769       1.006665
       17       2.807692       0.893419
       18       3.492308       1.166450
       19       3.530769       1.181580
       20       3.223077       1.073494
       21       3.323077       1.106669
       22       3.338462       1.093227
       23       2.523077       0.785803
       24       2.461538       0.763986
       25       3.253846       1.074317
       26       2.930769       0.954923
       27       3.300000       1.085029
       28       2.346154       0.699596
       29       2.369231       0.750074
       30       3.176923       1.052032
       31       2.338462       0.713135

 Density error is 7.215244122338
                          Error Threshold = 0.000195473892

       Energy                       Rydberg                            eV
   E_KohnSham            -3043.746819880047           -41412.300019748320
     E_Harris            -3043.818465849798           -41413.274813175660
      E_Fermi               +0.869694468416              +11.832800289540

 PW ALGORITHM --------------- ION=   1  ELEC=  10--------------------------------
  K-point    CG iter num      Time(Sec)
        1       2.200000       0.678515
        2       2.500000       0.763369
        3       2.630769       0.849743
        4       2.392308       0.727939
        5       2.369231       0.718141
        6       2.353846       0.743100
        7       2.646154       0.839069
        8       3.069231       1.023938
        9       2.523077       0.801090
       10       2.384615       0.755779
       11       2.361538       0.714466
       12       2.361538       0.752953
       13       2.430769       0.751606
       14       2.507692       0.784644
       15       3.084615       1.032061
       16       2.753846       0.907260
       17       2.530769       0.790225
       18       3.061538       0.983498
       19       2.961538       0.971330
       20       2.923077       0.960571
       21       2.915385       0.944857
       22       2.961538       0.950749
       23       2.392308       0.739200
       24       2.376923       0.752282
       25       2.938462       0.941872
       26       2.715385       0.903354
       27       2.900000       0.938041
       28       2.276923       0.694145
       29       2.438462       0.751503
       30       2.776923       0.905278
       31       2.338462       0.718631

 Density error is 7.209680644446
                          Error Threshold = 0.000195473892

       Energy                       Rydberg                            eV
   E_KohnSham            -3043.730880059150           -41412.083147359022
     E_Harris            -3043.815819913744           -41413.238813368793
      E_Fermi               +0.868794110241              +11.820550288117

 PW ALGORITHM --------------- ION=   1  ELEC=  11--------------------------------
  K-point    CG iter num      Time(Sec)
        1       2.246154       0.685283
        2       2.746154       0.857650
        3       2.476923       0.769302
        4       2.330769       0.728745
        5       2.261538       0.684119
        6       2.246154       0.676543
        7       2.507692       0.805165
        8       3.153846       1.050125
        9       2.430769       0.755145
       10       2.276923       0.722728
       11       2.246154       0.671590
       12       2.253846       0.706544
       13       2.284615       0.696832
       14       2.407692       0.747599
       15       3.507692       1.188812
       16       2.500000       0.811519
       17       2.461538       0.764664
       18       2.884615       0.920781
       19       2.553846       0.826357
       20       3.130769       1.037084
       21       2.507692       0.775545
       22       2.692308       0.841746
       23       2.323077       0.736766
       24       2.330769       0.701316
       25       2.523077       0.803678
       26       2.507692       0.782320
       27       2.469231       0.759089
       28       2.253846       0.713072
       29       2.230769       0.674946
       30       2.900000       0.925717
       31       2.276923       0.727203

 Density error is 1.558327406317
                          Error Threshold = 0.000195473892

       Energy                       Rydberg                            eV
   E_KohnSham            -3043.767755283542           -41412.584860525771
     E_Harris            -3043.799082973589           -41413.011095615599
      E_Fermi               +0.869326337388              +11.827791609943

 PW ALGORITHM --------------- ION=   1  ELEC=  12--------------------------------
  K-point    CG iter num      Time(Sec)
        1       2.292308       0.697321
        2       2.269231       0.698531
        3       2.207692       0.661800
        4       2.123077       0.656831
        5       2.115385       0.602152
        6       2.123077       0.655615
        7       2.315385       0.713875
        8       2.469231       0.775571
        9       2.153846       0.654546
       10       2.130769       0.638085
       11       2.107692       0.657705
       12       2.130769       0.628311
       13       2.130769       0.672745
       14       2.138462       0.620758
       15       2.484615       0.803914
       16       2.176923       0.663367
       17       2.161538       0.658334
       18       2.423077       0.780458
       19       2.300000       0.692233
       20       2.269231       0.717889
       21       2.253846       0.686181
       22       2.330769       0.709562
       23       2.115385       0.640737
       24       2.123077       0.634478
       25       2.269231       0.712896
       26       2.161538       0.629496
       27       2.176923       0.688119
       28       2.123077       0.621301
       29       2.138462       0.664754
       30       2.292308       0.694754
       31       2.084615       0.625336

 Density error is 0.744749598395
                          Error Threshold = 0.000195473892

       Energy                       Rydberg                            eV
   E_KohnSham            -3043.780833956249           -41412.762804996870
     E_Harris            -3043.784791486779           -41412.816649962093
      E_Fermi               +0.869500884305              +11.830166442585

 PW ALGORITHM --------------- ION=   1  ELEC=  13--------------------------------
  K-point    CG iter num      Time(Sec)
        1       2.000000       0.554756
        2       2.000000       0.603369
        3       2.000000       0.583423
        4       2.000000       0.602772
        5       2.000000       0.578900
        6       2.000000       0.607400
        7       2.000000       0.618056
        8       2.000000       0.599557
        9       2.000000       0.596472
       10       2.000000       0.595086
       11       2.000000       0.595364
       12       2.000000       0.596556
       13       2.000000       0.596103
       14       2.015385       0.603287
       15       2.000000       0.601150
       16       2.000000       0.600204
       17       2.000000       0.601224
       18       2.000000       0.598125
       19       2.000000       0.597095
       20       2.046154       0.613224
       21       2.015385       0.602571
       22       2.023077       0.598932
       23       2.000000       0.598293
       24       2.000000       0.595095
       25       2.015385       0.600504
       26       2.069231       0.622663
       27       2.092308       0.627271
       28       2.000000       0.595562
       29       2.000000       0.589210
       30       2.000000       0.591418
       31       2.000000       0.592103

 Density error is 0.675711747872
                          Error Threshold = 0.000195473892

       Energy                       Rydberg                            eV
   E_KohnSham            -3043.685222684890           -41411.461946913361
     E_Harris            -3043.784703706553           -41412.815455650838
      E_Fermi               +0.869506962090              +11.830249135098

 PW ALGORITHM --------------- ION=   1  ELEC=  14--------------------------------
  K-point    CG iter num      Time(Sec)
        1       2.453846       0.751419
        2       2.938462       0.929656
        3       3.338462       1.122552
        4       3.307692       1.083610
        5       3.292308       1.089797
        6       3.284615       1.080666
        7       2.892308       0.942727
        8       3.338462       1.117023
        9       3.615385       1.215458
       10       3.500000       1.168444
       11       3.369231       1.126248
       12       3.361538       1.125325
       13       3.469231       1.160269
       14       3.561538       1.210309
       15       3.361538       1.127311
       16       3.284615       1.093684
       17       3.492308       1.172952
       18       4.238462       1.465391
       19       4.646154       1.604862
       20       4.807692       1.643810
       21       4.384615       1.515422
       22       4.223077       1.425172
       23       3.600000       1.213394
       24       3.592308       1.209967
       25       4.338462       1.484686
       26       5.061538       1.734307
       27       4.753846       1.641583
       28       3.253846       1.063893
       29       3.276923       1.089739
       30       4.446154       1.527261
       31       3.015385       0.963129

 Density error is 305.122362349541
                          Error Threshold = 0.000195473892

       Energy                       Rydberg                            eV
   E_KohnSham            -3042.697720401192           -41398.026289067056
     E_Harris            -3044.851342613597           -41427.327822495128
      E_Fermi               +0.855257142858              +11.636370398062

 PW ALGORITHM --------------- ION=   1  ELEC=  15--------------------------------
  K-point    CG iter num      Time(Sec)
        1       2.646154       0.852335
        2       3.200000       1.051039
        3       3.615385       1.263858
        4       3.723077       1.229415
        5       3.030769       0.976699
        6       2.730769       0.863592
        7       3.246154       1.081854
        8       3.630769       1.249963
        9       4.015385       1.378662
       10       3.800000       1.279441
       11       3.061538       1.009661
       12       3.115385       1.017360
       13       3.746154       1.262396
       14       4.030769       1.395356
       15       3.815385       1.302927
       16       3.669231       1.249302
       17       4.115385       1.425077
       18       5.084615       1.741607
       19       5.030769       1.767575
       20       4.538462       1.567231
       21       4.976923       1.720907
       22       4.907692       1.688072
       23       3.707692       1.245898
       24       3.830769       1.288501
       25       4.638462       1.567963
       26       5.907692       2.067948
       27       6.146154       2.139663
       28       2.961538       0.950541
       29       3.030769       0.993638
       30       4.130769       1.409303
       31       2.730769       0.863673

 Density error is 3.335426484936
                          Error Threshold = 0.000195473892

       Energy                       Rydberg                            eV
   E_KohnSham            -3043.712776811180           -41411.836840034317
     E_Harris            -3043.790906633699           -41412.899850804308
      E_Fermi               +0.869496586466              +11.830107967483

 PW ALGORITHM --------------- ION=   1  ELEC=  16--------------------------------
  K-point    CG iter num      Time(Sec)
        1       2.407692       0.745504
        2       2.792308       0.888691
        3       2.969231       0.958373
        4       2.407692       0.763175
        5       2.330769       0.705056
        6       2.407692       0.744149
        7       2.676923       0.877912
        8       3.123077       1.018064
        9       2.715385       0.858736
       10       2.369231       0.748128
       11       2.423077       0.752934
       12       2.500000       0.781331
       13       2.369231       0.756356
       14       2.923077       0.941257
       15       3.100000       1.030213
       16       3.023077       0.986888
       17       2.746154       0.891437
       18       4.115385       1.398801
       19       2.915385       0.960015
       20       3.192308       1.061447
       21       2.992308       0.982372
       22       3.384615       1.121952
       23       2.423077       0.744142
       24       2.453846       0.791594
       25       3.046154       0.996345
       26       3.092308       1.003300
       27       2.961538       0.966268
       28       2.300000       0.719637
       29       2.446154       0.760546
       30       3.438462       1.146707
       31       2.392308       0.741667

 Density error is 33.458173037098
                          Error Threshold = 0.000195473892

       Energy                       Rydberg                            eV
   E_KohnSham            -3043.639413882229           -41410.838686178620
     E_Harris            -3043.908096121972           -41414.494295590521
      E_Fermi               +0.869298898959              +11.827418290972

 PW ALGORITHM --------------- ION=   1  ELEC=  17--------------------------------
  K-point    CG iter num      Time(Sec)
        1       2.600000       0.810950
        2       2.923077       0.940139
        3       2.538462       0.798835
        4       2.292308       0.695059
        5       2.253846       0.676385
        6       2.215385       0.690752
        7       2.653846       0.843161
        8       3.307692       1.111168
        9       2.561538       0.813539
       10       2.261538       0.700607
       11       2.238462       0.675234
       12       2.230769       0.709083
       13       2.269231       0.687318
       14       2.615385       0.834284
       15       3.423077       1.157164
       16       2.584615       0.842698
       17       2.553846       0.798848
       18       3.053846       0.983447
       19       3.200000       1.068339
       20       2.830769       0.932900
       21       2.946154       0.966430
       22       3.161538       1.024487
       23       2.276923       0.699949
       24       2.276923       0.721565
       25       3.015385       0.968954
       26       2.546154       0.799004
       27       2.684615       0.875080
       28       2.269231       0.690632
       29       2.215385       0.677370
       30       2.707692       0.881149
       31       2.246154       0.679074

 Density error is 0.800948668499
                          Error Threshold = 0.000195473892

       Energy                       Rydberg                            eV
   E_KohnSham            -3043.775511087004           -41412.690383645429
     E_Harris            -3043.785179164918           -41412.821924593773
      E_Fermi               +0.868993915738              +11.823268781374

 PW ALGORITHM --------------- ION=   1  ELEC=  18--------------------------------
  K-point    CG iter num      Time(Sec)
        1       2.038462       0.603296
        2       2.138462       0.629457
        3       2.023077       0.609274
        4       2.046154       0.591567
        5       2.046154       0.617628
        6       2.053846       0.598625
        7       2.000000       0.610297
        8       2.223077       0.671573
        9       2.076923       0.654354
       10       2.015385       0.569167
       11       2.023077       0.627762
       12       2.030769       0.576849
       13       2.023077       0.626725
       14       2.061538       0.589375
       15       2.192308       0.692941
       16       2.038462       0.598672
       17       2.084615       0.646467
       18       2.046154       0.602674
       19       2.069231       0.633241
       20       2.069231       0.616660
       21       2.053846       0.613257
       22       2.046154       0.603689
       23       2.007692       0.598420
       24       2.038462       0.606286
       25       2.046154       0.615625
       26       2.030769       0.603721
       27       2.046154       0.610604
       28       2.023077       0.601698
       29       2.038462       0.611104
       30       2.169231       0.652911
       31       2.023077       0.603962

 Density error is 0.379387189985
                          Error Threshold = 0.000195473892

       Energy                       Rydberg                            eV
   E_KohnSham            -3043.778501472881           -41412.731069932575
     E_Harris            -3043.782613735371           -41412.787020134107
      E_Fermi               +0.869218278405              +11.826321392055

 PW ALGORITHM --------------- ION=   1  ELEC=  19--------------------------------
  K-point    CG iter num      Time(Sec)
        1       2.000000       0.608845
        2       2.000000       0.622858
        3       2.023077       0.575418
        4       2.000000       0.616001
        5       2.000000       0.561772
        6       2.015385       0.623416
        7       2.000000       0.570989
        8       2.053846       0.646429
        9       2.000000       0.566406
       10       2.000000       0.624093
       11       2.000000       0.566177
       12       2.000000       0.621922
       13       2.000000       0.565972
       14       2.000000       0.621817
       15       2.076923       0.608424
       16       2.000000       0.624342
       17       2.000000       0.569196
       18       2.000000       0.623133
       19       2.000000       0.565252
       20       2.000000       0.623409
       21       2.000000       0.565378
       22       2.061538       0.640602
       23       2.000000       0.566045
       24       2.000000       0.622825
       25       2.000000       0.570675
       26       2.000000       0.623911
       27       2.023077       0.574393
       28       2.000000       0.619767
       29       2.000000       0.568923
       30       2.000000       0.619955
       31       2.000000       0.569174

 Density error is 0.029691301346
                          Error Threshold = 0.000156771566

       Energy                       Rydberg                            eV
   E_KohnSham            -3043.780837914272           -41412.762858848531
     E_Harris            -3043.781294405363           -41412.769069728463
      E_Fermi               +0.869356719029              +11.828204973379

 PW ALGORITHM --------------- ION=   1  ELEC=  20--------------------------------
  K-point    CG iter num      Time(Sec)
        1       2.192308       0.660122
        2       2.507692       0.772683
        3       2.607692       0.850010
        4       2.292308       0.686736
        5       2.369231       0.732503
        6       2.361538       0.730398
        7       2.884615       0.947093
        8       2.815385       0.902089
        9       2.369231       0.760279
       10       2.338462       0.716251
       11       2.415385       0.749747
       12       2.246154       0.688864
       13       2.346154       0.718420
       14       2.384615       0.765631
       15       2.661538       0.840824
       16       2.546154       0.801253
       17       2.446154       0.790971
       18       3.261538       1.085955
       19       2.538462       0.788908
       20       2.738462       0.871558
       21       2.500000       0.805623
       22       2.769231       0.864866
       23       2.261538       0.691372
       24       2.353846       0.753658
       25       2.469231       0.760623
       26       2.553846       0.799446
       27       2.623077       0.848606
       28       2.323077       0.702380
       29       2.400000       0.759710
       30       2.615385       0.838201
       31       2.323077       0.700499

 Density error is 0.131302459691
                          Error Threshold = 0.000012269133

       Energy                       Rydberg                            eV
   E_KohnSham            -3043.781766884634           -41412.775498138726
     E_Harris            -3043.783129949967           -41412.794043594011
      E_Fermi               +0.868992044337              +11.823243319657

 PW ALGORITHM --------------- ION=   1  ELEC=  21--------------------------------
  K-point    CG iter num      Time(Sec)
        1       2.015385       0.596416
        2       2.138462       0.638918
        3       2.200000       0.671562
        4       2.076923       0.609597
        5       2.076923       0.629240
        6       2.084615       0.612387
        7       2.261538       0.729114
        8       2.423077       0.754697
        9       2.115385       0.644209
       10       2.092308       0.630973
       11       2.107692       0.637644
       12       2.100000       0.633060
       13       2.092308       0.631634
       14       2.100000       0.634678
       15       2.369231       0.735133
       16       2.161538       0.692320
       17       2.115385       0.612613
       18       2.284615       0.727485
       19       2.215385       0.673545
       20       2.300000       0.744077
       21       2.200000       0.691427
       22       2.207692       0.667287
       23       2.100000       0.637455
       24       2.092308       0.626895
       25       2.200000       0.686844
       26       2.069231       0.603909
       27       2.061538       0.642291
       28       2.100000       0.603746
       29       2.092308       0.657546
       30       2.276923       0.685053
       31       2.076923       0.637136

 Density error is 0.018341239049
                          Error Threshold = 0.000012269133

       Energy                       Rydberg                            eV
   E_KohnSham            -3043.782259323145           -41412.782198108398
     E_Harris            -3043.782441924971           -41412.784682533696
      E_Fermi               +0.869009751939              +11.823484243940

 PW ALGORITHM --------------- ION=   1  ELEC=  22--------------------------------
  K-point    CG iter num      Time(Sec)
        1       2.000000       0.581045
        2       2.115385       0.631656
        3       2.076923       0.615368
        4       2.015385       0.600387
        5       2.015385       0.585543
        6       2.000000       0.590171
        7       2.092308       0.629297
        8       2.192308       0.695910
        9       2.015385       0.580860
       10       2.000000       0.620864
       11       2.000000       0.569385
       12       2.000000       0.619165
       13       2.000000       0.571221
       14       2.015385       0.626680
       15       2.123077       0.621791
       16       2.038462       0.637678
       17       2.023077       0.577022
       18       2.084615       0.653555
       19       2.000000       0.565018
       20       2.000000       0.616059
       21       2.015385       0.571375
       22       2.046154       0.631099
       23       2.000000       0.566919
       24       2.000000       0.620806
       25       2.046154       0.581162
       26       2.046154       0.634404
       27       2.046154       0.581079
       28       2.000000       0.619504
       29       2.000000       0.565795
       30       2.000000       0.614850
       31       2.000000       0.564966

 Density error is 0.016152829264
                          Error Threshold = 0.000007579024

       Energy                       Rydberg                            eV
   E_KohnSham            -3043.781682744284           -41412.774353350542
     E_Harris            -3043.782415577055           -41412.784324051900
      E_Fermi               +0.869008731876              +11.823470365272

 PW ALGORITHM --------------- ION=   1  ELEC=  23--------------------------------
  K-point    CG iter num      Time(Sec)
        1       2.107692       0.629593
        2       2.723077       0.853932
        3       2.530769       0.819484
        4       2.300000       0.697557
        5       2.315385       0.707305
        6       2.269231       0.699956
        7       2.584615       0.827161
        8       3.076923       1.021389
        9       2.376923       0.762972
       10       2.276923       0.694699
       11       2.300000       0.708657
       12       2.600000       0.842669
       13       2.292308       0.687882
       14       2.376923       0.759685
       15       3.030769       1.007009
       16       2.523077       0.788522
       17       2.392308       0.745220
       18       2.884615       0.947851
       19       2.507692       0.782396
       20       2.676923       0.847313
       21       2.438462       0.783485
       22       2.730769       0.855589
       23       2.346154       0.725935
       24       2.353846       0.752419
       25       2.438462       0.749722
       26       2.453846       0.766723
       27       2.546154       0.817762
       28       2.361538       0.715211
       29       2.369231       0.756015
       30       2.692308       0.862115
       31       2.230769       0.670746

 Density error is 1.988972400214
                          Error Threshold = 0.000006674723

       Energy                       Rydberg                            eV
   E_KohnSham            -3043.776221459454           -41412.700048758445
     E_Harris            -3043.788328983688           -41412.864780076707
      E_Fermi               +0.868627720928              +11.818286445376

 PW ALGORITHM --------------- ION=   1  ELEC=  24--------------------------------
  K-point    CG iter num      Time(Sec)
        1       2.069231       0.614936
        2       2.500000       0.771213
        3       2.538462       0.819935
        4       2.307692       0.690245
        5       2.323077       0.778953
        6       2.238462       0.675707
        7       2.661538       0.850088
        8       3.761538       1.284365
        9       2.292308       0.728977
       10       2.238462       0.680968
       11       2.315385       0.714075
       12       2.315385       0.729004
       13       2.238462       0.674228
       14       2.292308       0.732465
       15       3.353846       1.130374
       16       2.469231       0.771473
       17       2.292308       0.707669
       18       2.900000       0.953995
       19       2.392308       0.735067
       20       2.838462       0.916988
       21       2.369231       0.761377
       22       2.938462       0.934679
       23       2.292308       0.702032
       24       2.300000       0.737800
       25       2.392308       0.735110
       26       2.538462       0.796525
       27       2.461538       0.790665
       28       2.338462       0.705425
       29       2.346154       0.745360
       30       3.115385       1.038675
       31       2.192308       0.655964

 Density error is 0.085427655849
                          Error Threshold = 0.000006674723

       Energy                       Rydberg                            eV
   E_KohnSham            -3043.781578051706           -41412.772928934945
     E_Harris            -3043.782698095615           -41412.788167914114
      E_Fermi               +0.869015456345              +11.823561856369

 PW ALGORITHM --------------- ION=   1  ELEC=  25--------------------------------
  K-point    CG iter num      Time(Sec)
        1       2.046154       0.606685
        2       2.215385       0.661704
        3       2.123077       0.660564
        4       2.092308       0.602828
        5       2.123077       0.662995
        6       2.161538       0.618282
        7       2.353846       0.756356
        8       2.592308       0.818758
        9       2.107692       0.632548
       10       2.092308       0.636579
       11       2.115385       0.631430
       12       2.123077       0.663826
       13       2.092308       0.607467
       14       2.107692       0.663146
       15       2.453846       0.762864
       16       2.107692       0.647374
       17       2.107692       0.635431
       18       2.376923       0.736928
       19       2.184615       0.676947
       20       2.376923       0.725776
       21       2.161538       0.676036
       22       2.223077       0.665983
       23       2.092308       0.638326
       24       2.092308       0.627763
       25       2.223077       0.679258
       26       2.123077       0.640571
       27       2.215385       0.675328
       28       2.123077       0.651405
       29       2.123077       0.634599
       30       2.353846       0.752381
       31       2.107692       0.616046

 Density error is 0.092294661566
                          Error Threshold = 0.000006674723

       Energy                       Rydberg                            eV
   E_KohnSham            -3043.782101930697           -41412.780056674274
     E_Harris            -3043.782665432153           -41412.787723504916
      E_Fermi               +0.868992267087              +11.823246350322

 PW ALGORITHM --------------- ION=   1  ELEC=  26--------------------------------
  K-point    CG iter num      Time(Sec)
        1       2.000000       0.589830
        2       2.107692       0.625318
        3       2.038462       0.612120
        4       2.015385       0.589893
        5       2.000000       0.590802
        6       2.030769       0.601707
        7       2.000000       0.599316
        8       2.300000       0.711670
        9       2.015385       0.622148
       10       2.015385       0.586988
       11       2.015385       0.620898
       12       2.015385       0.586035
       13       2.015385       0.623120
       14       2.015385       0.589390
       15       2.215385       0.706530
       16       2.015385       0.577451
       17       2.015385       0.626392
       18       2.123077       0.616026
       19       2.069231       0.643604
       20       2.153846       0.644242
       21       2.038462       0.618790
       22       2.046154       0.597311
       23       2.015385       0.651640
       24       2.000000       0.588185
       25       2.053846       0.620952
       26       2.015385       0.594200
       27       2.046154       0.615821
       28       2.000000       0.586482
       29       2.015385       0.611645
       30       2.146154       0.642748
       31       2.000000       0.593745

 Density error is 0.005682666120
                          Error Threshold = 0.000006674723

       Energy                       Rydberg                            eV
   E_KohnSham            -3043.782331322604           -41412.783177711295
     E_Harris            -3043.782423605026           -41412.784433278051
      E_Fermi               +0.868997234336              +11.823313933207

 PW ALGORITHM --------------- ION=   1  ELEC=  27--------------------------------
  K-point    CG iter num      Time(Sec)
        1       2.046154       0.574926
        2       2.084615       0.635377
        3       2.038462       0.597004
        4       2.084615       0.642882
        5       2.061538       0.591319
        6       2.053846       0.637769
        7       2.261538       0.672176
        8       2.346154       0.752905
        9       2.130769       0.641256
       10       2.115385       0.638180
       11       2.038462       0.608945
       12       2.038462       0.609834
       13       2.115385       0.639666
       14       2.138462       0.647801
       15       2.253846       0.712025
       16       2.053846       0.606052
       17       2.153846       0.681750
       18       2.192308       0.646295
       19       2.084615       0.649271
       20       2.238462       0.678347
       21       2.123077       0.644515
       22       2.153846       0.645715
       23       2.107692       0.636626
       24       2.138462       0.644974
       25       2.107692       0.633320
       26       2.053846       0.616184
       27       2.092308       0.627690
       28       2.092308       0.634509
       29       2.038462       0.603854
       30       2.184615       0.681528
       31       2.061538       0.599580

 Density error is 0.002260758863
                          Error Threshold = 0.000002348209

       Energy                       Rydberg                            eV
   E_KohnSham            -3043.782387851197           -41412.783946822259
     E_Harris            -3043.782411652584           -41412.784270656732
      E_Fermi               +0.868993139504              +11.823258220157

 PW ALGORITHM --------------- ION=   1  ELEC=  28--------------------------------
  K-point    CG iter num      Time(Sec)
        1       2.007692       0.589684
        2       2.230769       0.674722
        3       2.123077       0.640343
        4       2.053846       0.605498
        5       2.069231       0.614448
        6       2.169231       0.652159
        7       2.107692       0.647220
        8       2.376923       0.732102
        9       2.123077       0.665993
       10       2.123077       0.626027
       11       2.076923       0.645235
       12       2.076923       0.616851
       13       2.115385       0.644622
       14       2.115385       0.636624
       15       2.369231       0.735880
       16       2.115385       0.642376
       17       2.084615       0.623796
       18       2.207692       0.691818
       19       2.153846       0.634632
       20       2.192308       0.694228
       21       2.176923       0.648884
       22       2.200000       0.681004
       23       2.076923       0.621522
       24       2.061538       0.617824
       25       2.146154       0.646745
       26       2.076923       0.622909
       27       2.069231       0.617278
       28       2.053846       0.612959
       29       2.123077       0.640774
       30       2.261538       0.690955
       31       2.069231       0.640219

 Density error is 0.003226945347
[...]
      89       4.165386       0.040000
      90       4.166348       0.040000
      91       4.272167       0.040000
      92       4.282316       0.040000
      93       4.501147       0.040000
      94       4.514004       0.040000
      95       4.837767       0.040000
      96       4.850336       0.040000
      97       5.288832       0.040000
      98       5.296342       0.040000
      99       5.848554       0.040000
     100       5.848958       0.040000
     101       6.507625       0.040000
     102       6.511622       0.040000
     103       7.266657       0.040000
     104       7.273287       0.040000
     105       8.107305       0.040000
     106       8.109188       0.040000
     107       8.845165       0.040000
     108       8.871716       0.040000
     109       9.004403       0.040000
     110       9.040125       0.040000
     111       9.102328       0.040000
     112       9.150519       0.040000
     113       9.218060       0.040000
     114       9.240455       0.040000
     115       9.621366       0.040000
     116       9.636536       0.040000
     117      10.048468       0.040000
     118      10.050193       0.040000
     119      10.476653       0.040000
     120      10.480884       0.040000
     121      10.702452       0.040000
     122      10.715381       0.040000
     123      11.288409       0.040000
     124      11.326775       0.040000
     125      11.805389       0.023969
     126      11.831488       0.018165
     127      12.128270       0.000000
     128      12.134953       0.000000
     129      12.895850       0.000000
     130      12.907210       0.000000

 29/31 kpoint (Cartesian) = 0.848528 0.326599 0.039365 (674 pws)
       1     -91.679970       0.080000
       2     -91.679752       0.080000
       3     -91.677882       0.080000
       4     -91.677405       0.080000
       5     -91.659371       0.080000
       6     -91.658925       0.080000
       7     -91.655742       0.080000
       8     -91.655622       0.080000
       9     -91.654507       0.080000
      10     -91.652836       0.080000
      11     -91.652219       0.080000
      12     -91.650142       0.080000
      13     -91.646905       0.080000
      14     -91.645409       0.080000
      15     -91.644399       0.080000
      16     -91.644247       0.080000
      17     -91.640527       0.080000
      18     -91.638799       0.080000
      19     -91.635993       0.080000
      20     -91.635223       0.080000
      21     -91.606617       0.080000
      22     -91.601078       0.080000
      23     -53.295805       0.080000
      24     -53.295556       0.080000
      25     -53.293860       0.080000
      26     -53.293611       0.080000
      27     -53.284840       0.080000
      28     -53.284413       0.080000
      29     -53.282804       0.080000
      30     -53.282443       0.080000
      31     -53.280783       0.080000
      32     -53.280772       0.080000
      33     -53.279070       0.080000
      34     -53.279049       0.080000
      35     -53.272414       0.080000
      36     -53.272304       0.080000
      37     -53.272168       0.080000
      38     -53.271935       0.080000
      39     -53.271514       0.080000
      40     -53.271281       0.080000
      41     -53.271192       0.080000
      42     -53.271049       0.080000
      43     -53.270944       0.080000
      44     -53.270783       0.080000
      45     -53.270193       0.080000
      46     -53.270022       0.080000
      47     -53.266039       0.080000
      48     -53.265867       0.080000
      49     -53.265219       0.080000
      50     -53.265194       0.080000
      51     -53.263756       0.080000
      52     -53.263638       0.080000
      53     -53.263532       0.080000
      54     -53.263240       0.080000
      55     -53.260478       0.080000
      56     -53.260124       0.080000
      57     -53.259421       0.080000
      58     -53.259365       0.080000
      59     -53.259001       0.080000
      60     -53.258639       0.080000
      61     -53.258117       0.080000
      62     -53.257687       0.080000
      63     -53.256622       0.080000
      64     -53.256088       0.080000
      65     -53.255714       0.080000
      66     -53.255227       0.080000
      67     -53.254608       0.080000
      68     -53.254367       0.080000
      69     -53.253987       0.080000
      70     -53.253953       0.080000
      71     -53.253699       0.080000
      72     -53.253599       0.080000
      73     -53.251820       0.080000
      74     -53.251518       0.080000
      75     -53.248965       0.080000
      76     -53.248881       0.080000
      77     -53.248285       0.080000
      78     -53.248138       0.080000
      79     -53.245248       0.080000
      80     -53.245124       0.080000
      81     -53.242895       0.080000
      82     -53.242695       0.080000
      83     -53.229181       0.080000
      84     -53.223753       0.080000
      85     -53.215769       0.080000
      86     -53.215402       0.080000
      87     -53.211065       0.080000
      88     -53.210784       0.080000
      89       5.375496       0.080000
      90       5.376777       0.080000
      91       5.481101       0.080000
      92       5.491703       0.080000
      93       5.707252       0.080000
      94       5.720403       0.080000
      95       6.037253       0.080000
      96       6.050253       0.080000
      97       6.478516       0.080000
      98       6.486591       0.080000
      99       7.020704       0.080000
     100       7.021605       0.080000
     101       7.608993       0.080000
     102       7.609263       0.080000
     103       7.748747       0.080000
     104       7.753525       0.080000
     105       7.880796       0.080000
     106       7.890568       0.080000
     107       8.121990       0.080000
     108       8.135594       0.080000
     109       8.374389       0.080000
     110       8.384167       0.080000
     111       8.470455       0.080000
     112       8.478012       0.080000
     113       8.756247       0.080000
     114       8.760695       0.080000
     115       9.218094       0.080000
     116       9.220213       0.080000
     117       9.646559       0.080000
     118       9.653524       0.080000
     119      10.234441       0.080000
     120      10.235877       0.080000
     121      10.456212       0.080000
     122      10.460071       0.080000
     123      10.940301       0.080000
     124      10.953541       0.080000
     125      11.537509       0.079998
     126      11.543259       0.079997
     127      11.807535       0.047002
     128      11.830976       0.036558
     129      12.702279       0.000000
     130      12.711977       0.000000

 30/31 kpoint (Cartesian) = 0.565685 0.653197 0.039365 (680 pws)
       1     -91.674972       0.040000
       2     -91.674774       0.040000
       3     -91.670627       0.040000
       4     -91.669702       0.040000
       5     -91.656138       0.040000
       6     -91.655789       0.040000
       7     -91.654973       0.040000
       8     -91.654401       0.040000
       9     -91.652048       0.040000
      10     -91.651321       0.040000
      11     -91.649092       0.040000
      12     -91.648886       0.040000
      13     -91.648446       0.040000
      14     -91.645819       0.040000
      15     -91.643215       0.040000
      16     -91.643165       0.040000
      17     -91.640840       0.040000
      18     -91.639078       0.040000
      19     -91.638938       0.040000
      20     -91.636803       0.040000
      21     -91.606377       0.040000
      22     -91.601084       0.040000
      23     -53.294233       0.040000
      24     -53.294145       0.040000
      25     -53.292264       0.040000
      26     -53.292202       0.040000
      27     -53.284596       0.040000
      28     -53.284508       0.040000
      29     -53.283400       0.040000
      30     -53.282983       0.040000
      31     -53.282363       0.040000
      32     -53.282286       0.040000
      33     -53.281656       0.040000
      34     -53.281228       0.040000
      35     -53.271931       0.040000
      36     -53.271454       0.040000
      37     -53.271248       0.040000
      38     -53.270804       0.040000
      39     -53.270614       0.040000
      40     -53.270145       0.040000
      41     -53.269899       0.040000
      42     -53.269775       0.040000
      43     -53.269754       0.040000
      44     -53.269509       0.040000
      45     -53.269041       0.040000
      46     -53.268909       0.040000
      47     -53.264898       0.040000
      48     -53.264661       0.040000
      49     -53.264386       0.040000
      50     -53.264210       0.040000
      51     -53.263446       0.040000
      52     -53.263236       0.040000
      53     -53.263015       0.040000
      54     -53.262710       0.040000
      55     -53.260910       0.040000
      56     -53.260785       0.040000
      57     -53.260655       0.040000
      58     -53.260455       0.040000
      59     -53.260022       0.040000
      60     -53.259801       0.040000
      61     -53.258975       0.040000
      62     -53.258800       0.040000
      63     -53.258155       0.040000
      64     -53.257782       0.040000
      65     -53.257590       0.040000
      66     -53.257202       0.040000
      67     -53.255991       0.040000
      68     -53.255701       0.040000
      69     -53.255359       0.040000
      70     -53.255192       0.040000
      71     -53.254961       0.040000
      72     -53.254402       0.040000
      73     -53.253569       0.040000
      74     -53.253408       0.040000
      75     -53.252156       0.040000
      76     -53.252130       0.040000
      77     -53.249332       0.040000
      78     -53.249152       0.040000
      79     -53.246532       0.040000
      80     -53.246331       0.040000
      81     -53.244727       0.040000
      82     -53.244358       0.040000
      83     -53.227721       0.040000
      84     -53.222280       0.040000
      85     -53.217856       0.040000
      86     -53.216065       0.040000
      87     -53.213243       0.040000
      88     -53.211363       0.040000
      89       7.029242       0.040000
      90       7.031460       0.040000
      91       7.063854       0.040000
      92       7.070527       0.040000
      93       7.133705       0.040000
      94       7.142644       0.040000
      95       7.165531       0.040000
      96       7.182806       0.040000
      97       7.346293       0.040000
      98       7.362239       0.040000
      99       7.384936       0.040000
     100       7.398453       0.040000
     101       7.625085       0.040000
     102       7.636796       0.040000
     103       7.721951       0.040000
     104       7.734393       0.040000
     105       8.050562       0.040000
     106       8.055913       0.040000
     107       8.264660       0.040000
     108       8.277287       0.040000
     109       8.612043       0.040000
     110       8.639938       0.040000
     111       8.708266       0.040000
     112       8.735127       0.040000
     113       9.079210       0.040000
     114       9.088148       0.040000
     115       9.482912       0.040000
     116       9.483000       0.040000
     117      10.021801       0.040000
     118      10.025146       0.040000
     119      10.447675       0.040000
     120      10.452636       0.040000
     121      10.874219       0.040000
     122      10.906094       0.040000
     123      11.096759       0.040000
     124      11.149940       0.040000
     125      11.557909       0.039996
     126      11.559232       0.039996
     127      11.730576       0.036143
     128      11.757048       0.032956
     129      11.858275       0.012461
     130      11.858402       0.012436

 31/31 kpoint (Cartesian) = 0.707107 0.408248 0.039365 (678 pws)
       1     -91.686305       0.020000
       2     -91.685460       0.020000
       3     -91.683178       0.020000
       4     -91.681571       0.020000
       5     -91.669761       0.020000
       6     -91.668178       0.020000
       7     -91.664841       0.020000
       8     -91.663594       0.020000
       9     -91.663219       0.020000
      10     -91.660550       0.020000
      11     -91.659223       0.020000
      12     -91.659006       0.020000
      13     -91.656172       0.020000
      14     -91.653946       0.020000
      15     -91.649312       0.020000
      16     -91.646888       0.020000
      17     -91.642674       0.020000
      18     -91.642484       0.020000
      19     -91.640754       0.020000
      20     -91.638989       0.020000
      21     -91.613673       0.020000
      22     -91.608318       0.020000
      23     -53.297610       0.020000
      24     -53.297283       0.020000
      25     -53.295612       0.020000
      26     -53.295286       0.020000
      27     -53.285445       0.020000
      28     -53.285068       0.020000
      29     -53.283508       0.020000
      30     -53.283190       0.020000
      31     -53.280465       0.020000
      32     -53.280041       0.020000
      33     -53.278686       0.020000
      34     -53.278243       0.020000
      35     -53.274220       0.020000
      36     -53.274119       0.020000
      37     -53.273884       0.020000
      38     -53.273574       0.020000
      39     -53.273401       0.020000
      40     -53.273064       0.020000
      41     -53.272862       0.020000
      42     -53.272489       0.020000
      43     -53.272357       0.020000
      44     -53.272313       0.020000
      45     -53.271896       0.020000
      46     -53.271633       0.020000
      47     -53.267359       0.020000
      48     -53.267180       0.020000
      49     -53.266771       0.020000
      50     -53.266722       0.020000
      51     -53.264588       0.020000
      52     -53.264432       0.020000
      53     -53.263816       0.020000
      54     -53.263631       0.020000
      55     -53.261025       0.020000
      56     -53.260688       0.020000
      57     -53.258743       0.020000
      58     -53.258712       0.020000
      59     -53.258661       0.020000
      60     -53.258307       0.020000
      61     -53.257980       0.020000
      62     -53.257850       0.020000
      63     -53.256999       0.020000
      64     -53.256697       0.020000
      65     -53.256224       0.020000
      66     -53.255763       0.020000
      67     -53.255069       0.020000
      68     -53.254825       0.020000
      69     -53.254279       0.020000
      70     -53.254149       0.020000
      71     -53.253297       0.020000
      72     -53.253186       0.020000
      73     -53.251317       0.020000
      74     -53.250183       0.020000
      75     -53.249127       0.020000
      76     -53.248854       0.020000
      77     -53.248046       0.020000
      78     -53.247698       0.020000
      79     -53.246679       0.020000
      80     -53.245426       0.020000
      81     -53.242994       0.020000
      82     -53.242560       0.020000
      83     -53.230834       0.020000
      84     -53.225421       0.020000
      85     -53.216170       0.020000
      86     -53.215187       0.020000
      87     -53.211467       0.020000
      88     -53.210567       0.020000
      89       6.309118       0.020000
      90       6.312328       0.020000
      91       6.346011       0.020000
      92       6.354044       0.020000
      93       6.417545       0.020000
      94       6.425751       0.020000
      95       6.450089       0.020000
      96       6.468881       0.020000
      97       6.634361       0.020000
      98       6.648689       0.020000
      99       6.672682       0.020000
     100       6.688331       0.020000
     101       6.922922       0.020000
     102       6.934897       0.020000
     103       7.009846       0.020000
     104       7.022763       0.020000
     105       7.346860       0.020000
     106       7.352549       0.020000
     107       7.551053       0.020000
     108       7.562955       0.020000
     109       7.914705       0.020000
     110       7.938647       0.020000
     111       8.011793       0.020000
     112       8.033761       0.020000
     113       8.395978       0.020000
     114       8.404033       0.020000
     115       8.795908       0.020000
     116       8.797393       0.020000
     117       9.355241       0.020000
     118       9.361997       0.020000
     119       9.790013       0.020000
     120       9.798859       0.020000
     121      10.268208       0.020000
     122      10.269431       0.020000
     123      10.553648       0.020000
     124      10.573031       0.020000
     125      11.368776       0.020000
     126      11.392226       0.020000
     127      11.439613       0.020000
     128      11.477856       0.020000
     129      12.324301       0.000000
     130      12.355270       0.000000



 --------------------------------------------
 !FINAL_ETOT_IS -41412.7843210321298102 eV
 --------------------------------------------






  |CLASS_NAME---------|NAME---------------|TIME(Sec)-----|CALLS----|AVG------|PER%-------
                                      total     1492.41201        17     87.79    100.00%
                 Run_pw     plane_wave_line     1492.40543         1   1492.41    100.00%
                Cell_PW        opt_cells_pw     1492.30652         1   1492.31     99.99%
                    FFT               FFT3D      310.02497   1707362      0.00     20.77%
              Potential            v_of_rho        0.40541        48      0.01      0.03%
                H_XC_pw                v_xc        0.37060        48      0.01      0.02%
               wavefunc             wfcinit        9.65809         1      9.66      0.65%
            pp_cell_vnl              getvnl        1.96631      1519      0.00      0.13%
                 WF_igk              get_sk        0.51545     34100      0.00      0.03%
              Hamilt_PW      diagH_subspace      110.44634      1457      0.08      7.40%
              Hamilt_PW               h_psi     1041.13722    574303      0.00     69.76%
              Hamilt_PW                vloc      364.96627    574303      0.00     24.45%
              Hamilt_PW                 vnl      670.56631    574303      0.00     44.93%
              Hamilt_PW     add_nonlocal_pp      248.43136    574303      0.00     16.65%
              Hamilt_PW                meta        0.14220    574303      0.00      0.01%
                 Hamilt        diagH_LAPACK        9.32046      1457      0.01      0.62%
                   Ions         opt_ions_pw     1482.52544         1   1482.53     99.34%
              Electrons     self_consistent     1482.52541         1   1482.53     99.34%
               Symmetry        rho_symmetry        0.39620        49      0.01      0.03%
              Electrons             c_bands     1382.61887        48     28.80     92.64%
                 Hamilt            diagH_pw     1380.39838      1488      0.93     92.49%
               Diago_CG                diag     1272.28287      1488      0.86     85.25%
                 Charge            sum_band       94.62644        48      1.97      6.34%
                 Charge             rho_mpi        0.35727        48      0.01      0.02%
                 Charge             mix_rho        0.15772        48      0.00      0.01%
 ----------------------------------------------------------------------------------------

 CLASS_NAME---------|NAME---------------|MEMORY(MB)--------
                                         50.1999
             wavefunc                 evc        45.9967
 ----------------------------------------------------------

 Start  Time  : Wed Mar 30 22:31:52 2022
 Finish Time  : Wed Mar 30 22:56:47 2022
 Total  Time  : 0 h 24 mins 55 secs 
