 *********************************************************
 *                                                       *
 *                  WELCOME TO ABACUS v3.0               *
 *                                                       *
 *            'Atomic-orbital Based Ab-initio            *
 *                  Computation at UStc'                 *
 *                                                       *
 *          Website: http://abacus.ustc.edu.cn/          *
 *                                                       *
 *********************************************************
 Tue May  2 12:45:52 2023
 MAKE THE DIR         : OUT.blpstest/
Notice: symbol 'al_locpsp' is not an element symbol!!!! set the covalent radius to be 0.
 UNIFORM GRID DIM     : 30 * 30 * 30
 UNIFORM GRID DIM(BIG): 30 * 30 * 30
func,idXC_GGA_X_PBE 101
func,idXC_GGA_C_PBE 130
 DONE(0.145933   SEC) : SETUP UNITCELL
 DONE(0.199693   SEC) : SYMMETRY
 DONE(0.556815   SEC) : INIT K-POINTS
 ---------------------------------------------------------
 Self-consistent calculations for electrons
 ---------------------------------------------------------
 SPIN    KPOINTS         PROCESSORS  
 1       256             1           
 ---------------------------------------------------------
 Use plane wave basis
 ---------------------------------------------------------
 ELEMENT NATOM       XC          
 Al      1           
 ---------------------------------------------------------
 Initial plane wave basis and FFT box
 ---------------------------------------------------------
 DONE(0.558124   SEC) : INIT BASIS
 DONE(0.558151   SEC) : INIT PHI
 DONE(0.609453   SEC) : LOCAL POTENTIAL
 DONE(0.609486   SEC) : NON-LOCAL POTENTIAL
 START CHARGE      : atomic
 DONE(0.718781   SEC) : INIT POTENTIAL
 DONE(0.718852   SEC) : INIT OPTIMIZATION
Default type: double
 DONE(0.720714   SEC) : INIT KEDF
======================== Running OFDFT ========================
Iter        Etot(Ha)          Theta      PotNorm     deltaE(Ha)
0     -2.022321666913e+00   2.000e-01   1.785e-01   -2.022e+00  
1     -2.042772970807e+00   6.439e-02   2.476e-01   -2.045e-02  
2     -2.102550511775e+00   7.907e-02   8.445e-02   -5.978e-02  
3     -2.103904958769e+00   8.656e-03   1.656e-02   -1.354e-03  
4     -2.103966007018e+00   2.012e-03   5.302e-03   -6.105e-05  
5     -2.103973730312e+00   6.788e-04   2.992e-03   -7.723e-06  
6     -2.103978147905e+00   9.739e-04   2.464e-04   -4.418e-06  
7     -2.103978171723e+00   5.214e-05   5.305e-05   -2.382e-08  
8     -2.103978172751e+00   1.386e-05   5.069e-06   -1.029e-09  

  |CLASS_NAME---------|NAME---------------|TIME(Sec)-----|CALLS----|AVG------|PER%-------
                       total               17.986         21        0.86      1e+02     %
   Driver              driver_line         17.974         1         18        1e+02     %
   PW_Basis            setuptransform      0.12107        1         0.12      0.67      %
   PW_Basis            recip2real          3.8479         2582      0.0015    21        %
   PW_Basis            gathers_scatterp    0.44208        2582      0.00017   2.5       %
   Potential           update_from_charge  10.228         199       0.051     57        %
   Potential           cal_v_eff           10.225         199       0.051     57        %
   H_Hartree_pw        v_hartree           0.81123        199       0.0041    4.5       %
   PW_Basis            real2recip          4.1027         2582      0.0016    23        %
   PW_Basis            gatherp_scatters    0.38356        2582      0.00015   2.1       %
   PotXC               cal_v_eff           9.3564         199       0.047     52        %
   XC_Functional       v_xc                8.6407         100       0.086     48        %
   XC_Functional       v_xc_libxc          9.1473         199       0.046     51        %
   ESolver_OF          Run                 17.265         1         17        96        %
   KEDF_LKT            LKT_potential       6.0048         198       0.03      33        %
   KEDF_vW             vw_potential        0.69913        198       0.0035    3.9       %
 ----------------------------------------------------------------------------------------

 START  Time  : Tue May  2 12:45:52 2023
 FINISH Time  : Tue May  2 12:46:10 2023
 TOTAL  Time  : 18
 SEE INFORMATION IN : OUT.blpstest/
