 *********************************************************
 *                                                       *
 *                  WELCOME TO ABACUS v3.0               *
 *                                                       *
 *            'Atomic-orbital Based Ab-initio            *
 *                  Computation at UStc'                 *
 *                                                       *
 *          Website: http://abacus.ustc.edu.cn/          *
 *                                                       *
 *********************************************************
 Wed May  3 01:05:26 2023
 MAKE THE DIR         : OUT.oftest/
Notice: symbol 'mg_locpsp' is not an element symbol!!!! set the covalent radius to be 0.
 UNIFORM GRID DIM     : 36 * 36 * 60
 UNIFORM GRID DIM(BIG): 36 * 36 * 60
func,idXC_GGA_X_PBE 101
func,idXC_GGA_C_PBE 130
 DONE(0.331585   SEC) : SETUP UNITCELL
 DONE(0.385009   SEC) : SYMMETRY
 DONE(0.385214   SEC) : INIT K-POINTS
 ---------------------------------------------------------
 Self-consistent calculations for electrons
 ---------------------------------------------------------
 SPIN    KPOINTS         PROCESSORS  
 1       1               1           
 ---------------------------------------------------------
 Use plane wave basis
 ---------------------------------------------------------
 ELEMENT NATOM       XC          
 Mg      2           
 ---------------------------------------------------------
 Initial plane wave basis and FFT box
 ---------------------------------------------------------
 DONE(0.397688   SEC) : INIT BASIS
 DONE(0.397716   SEC) : INIT PHI
 DONE(0.892312   SEC) : LOCAL POTENTIAL
 DONE(0.89235    SEC) : NON-LOCAL POTENTIAL
 START CHARGE      : atomic
 DONE(1.51901    SEC) : INIT POTENTIAL
 DONE(1.51946    SEC) : INIT OPTIMIZATION
Default type: double
nnode = 10
nlayer = 3
feg_net_F = 0.540933
 DONE(1.58427    SEC) : INIT KEDF
======================== Running OFDFT ========================
Iter        Etot(Ha)          Theta      PotNorm     deltaE(Ha)
0     -1.689482935831e+00   2.000e-01   1.126e-01   -1.689e+00  
1     -1.776570166048e+00   9.735e-02   7.800e-02   -8.709e-02  
2     -1.780861082059e+00   2.756e-02   7.669e-03   -4.291e-03  
3     -1.780881950486e+00   8.179e-04   3.551e-03   -2.087e-05  
4     -1.780889579475e+00   9.153e-04   1.757e-03   -7.629e-06  
5     -1.780890456086e+00   1.433e-04   8.736e-04   -8.766e-07  
6     -1.780891892160e+00   7.210e-04   8.682e-05   -1.436e-06  
7     -1.780891901250e+00   3.799e-05   1.652e-05   -9.090e-09  
8     -1.780891901429e+00   4.493e-06   8.968e-06   -1.791e-10  

  |CLASS_NAME---------|NAME---------------|TIME(Sec)-----|CALLS----|AVG------|PER%-------
                       total               655.36         21        31        1e+02     %
   Driver              driver_line         655.35         1         6.6e+02   1e+02     %
   PW_Basis            setuptransform      0.29173        1         0.29      0.045     %
   ppcell_vl           init_vloc           0.49442        1         0.49      0.075     %
   Charge              atomic_rho          0.47868        1         0.48      0.073     %
   PW_Basis            recip2real          14.286         4748      0.003     2.2       %
   PW_Basis            gathers_scatterp    1.2559         4748      0.00026   0.19      %
   Potential           init_pot            0.14311        1         0.14      0.022     %
   Potential           update_from_charge  21.342         238       0.09      3.3       %
   Potential           cal_v_eff           21.336         238       0.09      3.3       %
   H_Hartree_pw        v_hartree           1.6703         238       0.007     0.25      %
   PW_Basis            real2recip          14.067         4748      0.003     2.1       %
   PW_Basis            gatherp_scatters    0.80437        4748      0.00017   0.12      %
   PotXC               cal_v_eff           19.606         238       0.082     3         %
   XC_Functional       v_xc                325.79         119       2.7       50        %
   XC_Functional       v_xc_libxc          19.575         238       0.082     3         %
   ESolver_OF          Run                 653.77         1         6.5e+02   1e+02     %
   KEDF_vW             vw_potential        1.6251         237       0.0069    0.25      %
 ----------------------------------------------------------------------------------------

 START  Time  : Wed May  3 01:05:26 2023
 FINISH Time  : Wed May  3 01:16:21 2023
 TOTAL  Time  : 6.6e+02
 SEE INFORMATION IN : OUT.oftest/
