                                                                                     
                             WELCOME TO ABACUS                                       
                                                                                     
               'Atomic-orbital Based Ab-initio Computation at UStc'                  
                                                                                     
                     Website: http://abacus.ustc.edu.cn/                             
                                                                                     
    Version: Parallel, in development
    Processor Number is 16
    Start Time is Tue Mar 29 19:49:53 2022
                                                                                     
 ------------------------------------------------------------------------------------

 READING GENERAL INFORMATION
                           global_out_dir = OUT.stack/
                           global_in_card = INPUT
                               pseudo_dir = 
                              orbital_dir = 
                              pseudo_type = auto
                                    DRANK = 1
                                    DSIZE = 16
                                   DCOLOR = 1
                                    GRANK = 1
                                    GSIZE = 1




 >>>>>>>>>>>>>>>>>>>>>>>>>>>>>>>>>>>>>>>>>>>>>>>>>>>>>>>>>>>>>>>>>>>>>>
 |                                                                    |
 | Reading atom information in unitcell:                              |
 | From the input file and the structure file we know the number of   |
 | different elments in this unitcell, then we list the detail        |
 | information for each element, especially the zeta and polar atomic |
 | orbital number for each element. The total atom number is counted. |
 | We calculate the nearest atom distance for each atom and show the  |
 | Cartesian and Direct coordinates for each atom. We list the file   |
 | address for atomic orbitals. The volume and the lattice vectors    |
 | in real and reciprocal space is also shown.                        |
 |                                                                    |
 <<<<<<<<<<<<<<<<<<<<<<<<<<<<<<<<<<<<<<<<<<<<<<<<<<<<<<<<<<<<<<<<<<<<<<




 READING UNITCELL INFORMATION
                                    ntype = 1
                 atom label for species 1 = Al
                  lattice constant (Bohr) = 7.49843
              lattice constant (Angstrom) = 3.968

 READING ATOM TYPE 1
                               atom label = Al
                      L=0, number of zeta = 1
                      L=1, number of zeta = 1
                      L=2, number of zeta = 1
             number of atom for this type = 20
                      start magnetization = FALSE
                      start magnetization = FALSE
                      start magnetization = FALSE
                      start magnetization = FALSE
                      start magnetization = FALSE
                      start magnetization = FALSE
                      start magnetization = FALSE
                      start magnetization = FALSE
                      start magnetization = FALSE
                      start magnetization = FALSE
                      start magnetization = FALSE
                      start magnetization = FALSE
                      start magnetization = FALSE
                      start magnetization = FALSE
                      start magnetization = FALSE
                      start magnetization = FALSE
                      start magnetization = FALSE
                      start magnetization = FALSE
                      start magnetization = FALSE
                      start magnetization = FALSE

                        TOTAL ATOM NUMBER = 20

 DIRECT COORDINATES
         atom                   x                   y                   z                 mag                  vx                  vy                  vz
     taud_Al1                   0                   0         0.000206457                   0                   0                   0                   0
     taud_Al2            0.333333            0.333333           0.0499806                   0                   0                   0                   0
     taud_Al3            0.666667            0.666667            0.100024                   0                   0                   0                   0
     taud_Al4                   0                   0            0.149791                   0                   0                   0                   0
     taud_Al5            0.333333            0.333333            0.199862                   0                   0                   0                   0
     taud_Al6                   0                   0            0.250268                   0                   0                   0                   0
     taud_Al7            0.333333            0.333333            0.300232                   0                   0                   0                   0
     taud_Al8            0.666667            0.666667            0.350004                   0                   0                   0                   0
     taud_Al9                   0                   0            0.399801                   0                   0                   0                   0
    taud_Al10            0.333333            0.333333                0.45                   0                   0                   0                   0
    taud_Al11                   0                   0            0.500199                   0                   0                   0                   0
    taud_Al12            0.666667            0.666667            0.549996                   0                   0                   0                   0
    taud_Al13            0.333333            0.333333            0.599768                   0                   0                   0                   0
    taud_Al14                   0                   0            0.649732                   0                   0                   0                   0
    taud_Al15            0.333333            0.333333            0.700138                   0                   0                   0                   0
    taud_Al16                   0                   0            0.750209                   0                   0                   0                   0
    taud_Al17            0.666667            0.666667            0.799976                   0                   0                   0                   0
    taud_Al18            0.333333            0.333333            0.850019                   0                   0                   0                   0
    taud_Al19                   0                   0            0.899794                   0                   0                   0                   0
    taud_Al20            0.666667            0.666667                0.95                   0                   0                   0                   0


                          Volume (Bohr^3) = 2108.05
                             Volume (A^3) = 312.381

 Lattice vectors: (Cartesian coordinate: in unit of a_0)
            +0.707107                  +0                  +0
            +0.353553           +0.612372                  +0
                   +0                  +0             +11.547
 Reciprocal vectors: (Cartesian coordinate: in unit of 2 pi/a_0)
             +1.41421           -0.816497                  +0
                   +0            +1.63299                  -0
                   +0                  -0          +0.0866025




 >>>>>>>>>>>>>>>>>>>>>>>>>>>>>>>>>>>>>>>>>>>>>>>>>>>>>>>>>>>>>>>>>>>>>>
 |                                                                    |
 | Reading pseudopotentials files:                                    |
 | The pseudopotential file is in UPF format. The 'NC' indicates that |
 | the type of pseudopotential is 'norm conserving'. Functional of    |
 | exchange and correlation is decided by 4 given parameters in UPF   |
 | file.  We also read in the 'core correction' if there exists.      |
 | Also we can read the valence electrons number and the maximal      |
 | angular momentum used in this pseudopotential. We also read in the |
 | trail wave function, trail atomic density and local-pseudopotential|
 | on logrithmic grid. The non-local pseudopotential projector is also|
 | read in if there is any.                                           |
 |                                                                    |
 <<<<<<<<<<<<<<<<<<<<<<<<<<<<<<<<<<<<<<<<<<<<<<<<<<<<<<<<<<<<<<<<<<<<<<




                PAO radial cut off (Bohr) = 15

 Read in pseudopotential file is Al_ONCV_PBE-1.2.upf
                     pseudopotential type = NC
                            functional Ex = PBE
                            functional Ec = 
                          functional GCEx = 
                          functional GCEc = 
                 nonlocal core correction = 0
                        valence electrons = 11
                                     lmax = 1
                           number of zeta = 0
                     number of projectors = 4
                           L of projector = 0
                           L of projector = 0
                           L of projector = 1
                           L of projector = 1
     initial pseudo atomic orbital number = 0
                                   NLOCAL = 180

 SETUP THE ELECTRONS NUMBER
            electron number of element Al = 11
      total electron number of element Al = 220
                           occupied bands = 110
                                   NBANDS = 130
 DONE : SETUP UNITCELL Time : 0.0232839 (SEC)





 >>>>>>>>>>>>>>>>>>>>>>>>>>>>>>>>>>>>>>>>>>>>>>>>>>>>>>>>>>>>>>>>>>>>>>
 |                                                                    |
 | Doing symmetry analysis:                                           |
 | We calculate the norm of 3 vectors and the angles between them,    |
 | the type of Bravais lattice is given. We can judge if the unticell |
 | is a primitive cell. Finally we give the point group operation for |
 | this unitcell. We we use the point group operations to do symmetry |
 | analysis on given k-point mesh and the charge density.             |
 |                                                                    |
 <<<<<<<<<<<<<<<<<<<<<<<<<<<<<<<<<<<<<<<<<<<<<<<<<<<<<<<<<<<<<<<<<<<<<<




 LATTICE VECTORS: (CARTESIAN COORDINATE: IN UNIT OF A0)
            +0.707107                  +0                  +0
            +0.353553           +0.612372                  +0
                   +0                  +0             +11.547
                       right hand lattice = 1
                                   NORM_A = 0.707107
                                   NORM_B = 0.707107
                                   NORM_C = 11.547
                           ALPHA (DEGREE) = 60
                           BETA  (DEGREE) = 90
                           GAMMA (DEGREE) = 90
                             BRAVAIS TYPE = 4
                     BRAVAIS LATTICE NAME = 04. Hexagonal cell
 STANDARD LATTICE VECTORS: (CARTESIAN COORDINATE: IN UNIT OF A0)
            +0.707107                  +0                  +0
            +0.353553           +0.612372                  +0
                   +0                  +0             +11.547
                                    IBRAV = 4
                                  BRAVAIS = HEXAGONAL CELL
                       LATTICE CONSTANT A = 34.7347
                                C/A RATIO = 0.667046
                                    ibrav = 4
                        ROTATION MATRICES = 24
              PURE POINT GROUP OPERATIONS = 2
                   SPACE GROUP OPERATIONS = 2
                                       C2 = 0
                                       C3 = 0
                                       C4 = 0
                                       C6 = 0
                                       S1 = 1
                                       S3 = 0
                                       S4 = 0
                                       S6 = 0
                              POINT GROUP = C_1h
 DONE : SYMMETRY Time : 0.0566563 (SEC)





 >>>>>>>>>>>>>>>>>>>>>>>>>>>>>>>>>>>>>>>>>>>>>>>>>>>>>>>>>>>>>>>>>>>>>>
 |                                                                    |
 | Setup K-points                                                     |
 | We setup the k-points according to input parameters.               |
 | The reduced k-points are set according to symmetry operations.     |
 | We treat the spin as another set of k-points.                      |
 |                                                                    |
 <<<<<<<<<<<<<<<<<<<<<<<<<<<<<<<<<<<<<<<<<<<<<<<<<<<<<<<<<<<<<<<<<<<<<<





 SETUP K-POINTS
                                    nspin = 1
                   Input type of k points = Monkhorst-Pack(Gamma)
                                   nkstot = 100
                               nkstot_ibz = 31
      IBZ             DirectX             DirectY             DirectZ              Weight    ibz2bz
        1                   0                   0                   0                0.01         0
        2                   0                 0.9                   0                0.04         1
        3                 0.8                   0                   0                0.04         2
        4                   0                 0.7                   0                0.04         3
        5                 0.6                   0                   0                0.04         4
        6                   0                 0.5                   0                0.02         5
        7                 0.9                 0.9                   0                0.02        11
        8                 0.9                 0.8                   0                0.04        12
        9                 0.9                 0.7                   0                0.04        13
       10                 0.9                 0.6                   0                0.04        14
       11                 0.9                 0.5                   0                0.04        15
       12                 0.9                 0.4                   0                0.04        16
       13                 0.9                 0.3                   0                0.04        17
       14                 0.9                 0.2                   0                0.04        18
       15                 0.9                 0.1                   0                0.02        19
       16                 0.8                 0.8                   0                0.02        22
       17                 0.8                 0.7                   0                0.04        23
       18                 0.8                 0.6                   0                0.04        24
       19                 0.8                 0.5                   0                0.04        25
       20                 0.8                 0.4                   0                0.04        26
       21                 0.8                 0.3                   0                0.04        27
       22                 0.2                 0.8                   0                0.02        28
       23                 0.7                 0.7                   0                0.02        33
       24                 0.7                 0.6                   0                0.04        34
       25                 0.7                 0.5                   0                0.04        35
       26                 0.7                 0.4                   0                0.04        36
       27                 0.7                 0.3                   0                0.02        37
       28                 0.6                 0.6                   0                0.02        44
       29                 0.6                 0.5                   0                0.04        45
       30                 0.4                 0.6                   0                0.02        46
       31                 0.5                 0.5                   0                0.01        55
                               nkstot now = 31

  KPOINTS            DIRECT_X            DIRECT_Y            DIRECT_Z              WEIGHT
        1                   0                   0                   0                0.01
        2                   0                 0.9                   0                0.04
        3                 0.8                   0                   0                0.04
        4                   0                 0.7                   0                0.04
        5                 0.6                   0                   0                0.04
        6                   0                 0.5                   0                0.02
        7                 0.9                 0.9                   0                0.02
        8                 0.9                 0.8                   0                0.04
        9                 0.9                 0.7                   0                0.04
       10                 0.9                 0.6                   0                0.04
       11                 0.9                 0.5                   0                0.04
       12                 0.9                 0.4                   0                0.04
       13                 0.9                 0.3                   0                0.04
       14                 0.9                 0.2                   0                0.04
       15                 0.9                 0.1                   0                0.02
       16                 0.8                 0.8                   0                0.02
       17                 0.8                 0.7                   0                0.04
       18                 0.8                 0.6                   0                0.04
       19                 0.8                 0.5                   0                0.04
       20                 0.8                 0.4                   0                0.04
       21                 0.8                 0.3                   0                0.04
       22                 0.2                 0.8                   0                0.02
       23                 0.7                 0.7                   0                0.02
       24                 0.7                 0.6                   0                0.04
       25                 0.7                 0.5                   0                0.04
       26                 0.7                 0.4                   0                0.04
       27                 0.7                 0.3                   0                0.02
       28                 0.6                 0.6                   0                0.02
       29                 0.6                 0.5                   0                0.04
       30                 0.4                 0.6                   0                0.02
       31                 0.5                 0.5                   0                0.01

           k-point number in this process = 31
       minimum distributed K point number = 31

  KPOINTS         CARTESIAN_X         CARTESIAN_Y         CARTESIAN_Z              WEIGHT
        1                   0                   0                   0                0.02
        2                   0             1.46969                   0                0.08
        3             1.13137           -0.653197                   0                0.08
        4                   0              1.1431                   0                0.08
        5            0.848528           -0.489898                   0                0.08
        6                   0            0.816497                   0                0.04
        7             1.27279            0.734847                   0                0.04
        8             1.27279            0.571548                   0                0.08
        9             1.27279            0.408248                   0                0.08
       10             1.27279            0.244949                   0                0.08
       11             1.27279           0.0816497                   0                0.08
       12             1.27279          -0.0816497                   0                0.08
       13             1.27279           -0.244949                   0                0.08
       14             1.27279           -0.408248                   0                0.08
       15             1.27279           -0.571548                   0                0.04
       16             1.13137            0.653197                   0                0.04
       17             1.13137            0.489898                   0                0.08
       18             1.13137            0.326599                   0                0.08
       19             1.13137            0.163299                   0                0.08
       20             1.13137                   0                   0                0.08
       21             1.13137           -0.163299                   0                0.08
       22            0.282843              1.1431                   0                0.04
       23            0.989949            0.571548                   0                0.04
       24            0.989949            0.408248                   0                0.08
       25            0.989949            0.244949                   0                0.08
       26            0.989949           0.0816497                   0                0.08
       27            0.989949          -0.0816497                   0                0.04
       28            0.848528            0.489898                   0                0.04
       29            0.848528            0.326599                   0                0.08
       30            0.565685            0.653197                   0                0.04
       31            0.707107            0.408248                   0                0.02

  KPOINTS            DIRECT_X            DIRECT_Y            DIRECT_Z              WEIGHT
        1                   0                   0                   0                0.02
        2                   0                 0.9                   0                0.08
        3                 0.8                   0                   0                0.08
        4                   0                 0.7                   0                0.08
        5                 0.6                   0                   0                0.08
        6                   0                 0.5                   0                0.04
        7                 0.9                 0.9                   0                0.04
        8                 0.9                 0.8                   0                0.08
        9                 0.9                 0.7                   0                0.08
       10                 0.9                 0.6                   0                0.08
       11                 0.9                 0.5                   0                0.08
       12                 0.9                 0.4                   0                0.08
       13                 0.9                 0.3                   0                0.08
       14                 0.9                 0.2                   0                0.08
       15                 0.9                 0.1                   0                0.04
       16                 0.8                 0.8                   0                0.04
       17                 0.8                 0.7                   0                0.08
       18                 0.8                 0.6                   0                0.08
       19                 0.8                 0.5                   0                0.08
       20                 0.8                 0.4                   0                0.08
       21                 0.8                 0.3                   0                0.08
       22                 0.2                 0.8                   0                0.04
       23                 0.7                 0.7                   0                0.04
       24                 0.7                 0.6                   0                0.08
       25                 0.7                 0.5                   0                0.08
       26                 0.7                 0.4                   0                0.08
       27                 0.7                 0.3                   0                0.04
       28                 0.6                 0.6                   0                0.04
       29                 0.6                 0.5                   0                0.08
       30                 0.4                 0.6                   0                0.04
       31                 0.5                 0.5                   0                0.02
 DONE : INIT K-POINTS Time : 0.0796906 (SEC)





 >>>>>>>>>>>>>>>>>>>>>>>>>>>>>>>>>>>>>>>>>>>>>>>>>>>>>>>>>>>>>>>>>>>>>>
 |                                                                    |
 | Setup plane waves:                                                 |
 | Use the energy cutoff and the lattice vectors to generate the      |
 | dimensions of FFT grid. The number of FFT grid on each processor   |
 | is 'nrxx'. The number of plane wave basis in reciprocal space is   |
 | different for charege/potential and wave functions. We also set    |
 | the 'sticks' for the parallel of FFT.                              |
 |                                                                    |
 <<<<<<<<<<<<<<<<<<<<<<<<<<<<<<<<<<<<<<<<<<<<<<<<<<<<<<<<<<<<<<<<<<<<<<





 SETUP THE PLANE WAVE BASIS
     energy cutoff for wavefunc (unit:Ry) = 40
            [fft grid for wave functions] = 24, 24, 360
          [fft grid for charge/potential] = 24, 24, 360
                      [fft grid division] = 1, 1, 1
      [big fft grid for charge/potential] = 24, 24, 360
                                     nbxx = 13248
                                     nrxx = 13248

 SETUP PLANE WAVES FOR CHARGE/POTENTIAL
                    number of plane waves = 72325
                         number of sticks = 313

 SETUP PLANE WAVES FOR WAVE FUNCTIONS
                    number of plane waves = 15353
                         number of sticks = 109

 PARALLEL PW FOR CHARGE/POTENTIAL
     PROC   COLUMNS(POT)             PW
        1             20           4516
        2             19           4503
        3             19           4503
        4             19           4503
        5             20           4546
        6             19           4503
        7             20           4514
        8             20           4514
        9             20           4546
       10             20           4546
       11             19           4503
       12             20           4546
       13             19           4503
       14             20           4536
       15             19           4501
       16             20           4542
 --------------- sum -------------------
       16            313          72325

 PARALLEL PW FOR WAVE FUNCTIONS
     PROC     COLUMNS(W)             PW
        1              7            969
        2              7            969
        3              7            969
        4              7            969
        5              7            969
        6              6            936
        7              7            967
        8              7            955
        9              7            955
       10              7            985
       11              7            985
       12              6            926
       13              6            934
       14              7            963
       15              7            951
       16              7            951
 --------------- sum -------------------
       16            109          15353

 SETUP COORDINATES OF PLANE WAVES
              number of total plane waves = 72325

 SETUP COORDINATES OF PLANE WAVES
                            number of |g| = 2142
                                  max |g| = 227.874
                                  min |g| = 0
 DONE : INIT PLANEWAVE Time : 0.118555 (SEC)

                                     npwx = 634

 SETUP NONLOCAL PSEUDOPOTENTIALS IN PLANE WAVE BASIS
 Al non-local projectors:
 projector 1 L=0
 projector 2 L=0
 projector 3 L=1
 projector 4 L=1
      TOTAL NUMBER OF NONLOCAL PROJECTORS = 160
 DONE : LOCAL POTENTIAL Time : 0.168665 (SEC)


 Init Non-Local PseudoPotential table : 
 Init Non-Local-Pseudopotential done.
 DONE : NON-LOCAL POTENTIAL Time : 0.180591 (SEC)

                                start_pot = atomic
 DONE : INIT POTENTIAL Time : 0.234908 (SEC)


 Make real space PAO into reciprocal space.
       max mesh points in Pseudopotential = 601
     dq(describe PAO in reciprocal space) = 0.01
                                    max q = 764

 number of pseudo atomic orbitals for Al is 0
 DONE : INIT BASIS Time : 9.2767 (SEC)


 -------------------------------------------
 SELF-CONSISTENT
 -------------------------------------------

 PW ALGORITHM --------------- ION=   1  ELEC=   1--------------------------------
  K-point    CG iter num      Time(Sec)
        1       8.507692       1.889136
        2       8.623077       1.900490
        3       8.715385       1.998130
        4       8.715385       1.915381
        5       8.569231       1.911090
        6       8.746154       1.962933
        7       8.684615       1.944746
        8       8.484615       1.946307
        9       8.569231       1.928906
       10       8.669231       1.956814
       11       8.692308       1.991719
       12       8.661538       1.958354
       13       8.730769       1.977744
       14       8.530769       1.961079
       15       8.523077       1.892316
       16       8.692308       1.997671
       17       8.653846       1.957609
       18       8.523077       1.906703
       19       8.623077       1.975458
       20       8.561538       1.923392
       21       8.638462       1.958147
       22       8.592308       1.897261
       23       8.669231       1.951311
       24       8.738462       2.002258
       25       8.669231       1.955119
       26       8.476923       1.904110
       27       8.469231       1.937460
       28       8.700000       1.948252
       29       8.715385       1.964167
       30       8.553846       1.941954
       31       8.561538       1.921707
 Notice: Threshold on eigenvalues was too large.
 dr2=0.518425 < diago_error=2.200000
 Origin ETHR = 0.010000
 New    ETHR = 0.000236
  K-point    CG iter num      Time(Sec)
        1       5.438462       1.475994
        2       5.692308       1.475999
        3       5.330769       1.403960
        4       5.707692       1.476236
        5       6.015385       1.572041
        6       5.746154       1.437632
        7       5.569231       1.484582
        8       6.023077       1.638639
        9       6.430769       1.725830
       10       6.169231       1.605291
       11       6.061538       1.601597
       12       6.538462       1.731763
       13       6.407692       1.713174
       14       6.553846       1.774064
       15       5.915385       1.572436
       16       5.476923       1.472178
       17       6.284615       1.687323
       18       6.553846       1.739711
       19       6.769231       1.801251
       20       6.923077       1.818433
       21       6.653846       1.789980
       22       6.684615       1.739611
       23       5.700000       1.514104
       24       6.100000       1.617098
       25       6.761538       1.801168
       26       7.830769       2.049541
       27       7.576923       2.016715
       28       5.900000       1.530144
       29       5.976923       1.560780
       30       6.692308       1.762215
       31       5.615385       1.430032

 Density error is 0.435948535780
                          Error Threshold = 0.000235647921

       Energy                       Rydberg                            eV
   E_KohnSham            -2767.237841614178           -37650.202367174345
     E_Harris            -2767.296069591930           -37650.994599454782
      E_Fermi               +0.874901128780              +11.903640538042

 PW ALGORITHM --------------- ION=   1  ELEC=   2--------------------------------
  K-point    CG iter num      Time(Sec)
        1       2.669231       0.654677
        2       2.400000       0.599885
        3       2.246154       0.536982
        4       2.092308       0.485915
        5       2.092308       0.545558
        6       2.092308       0.457890
        7       2.392308       0.604531
        8       2.269231       0.514827
        9       2.276923       0.563533
       10       2.238462       0.524637
       11       2.238462       0.541666
       12       2.246154       0.542328
       13       2.261538       0.541634
       14       2.246154       0.537973
       15       2.207692       0.512335
       16       2.238462       0.557282
       17       2.284615       0.525194
       18       2.161538       0.534841
       19       2.192308       0.507455
       20       2.200000       0.526841
       21       2.207692       0.533448
       22       2.176923       0.507794
       23       2.092308       0.506317
       24       2.238462       0.517467
       25       2.215385       0.557987
       26       2.207692       0.502270
       27       2.176923       0.524106
       28       2.092308       0.494790
       29       2.192308       0.531939
       30       2.169231       0.520369
       31       2.092308       0.463853

 Density error is 5.711750961254
                          Error Threshold = 0.000198158425

       Energy                       Rydberg                            eV
   E_KohnSham            -2763.531650488580           -37599.777049989170
     E_Harris            -2767.270051054543           -37650.640599092701
      E_Fermi               +0.872125368352              +11.865874379937

 PW ALGORITHM --------------- ION=   1  ELEC=   3--------------------------------
  K-point    CG iter num      Time(Sec)
        1      14.884615       3.822616
        2      13.169231       3.396514
        3      16.546154       4.276986
        4      14.761538       3.724903
        5      14.561538       3.739337
        6      14.376923       3.690199
        7      13.484615       3.577512
        8      15.500000       4.030043
        9      13.176923       3.480520
       10      12.553846       3.297763
       11      13.607692       3.539464
       12      13.192308       3.513744
       13      12.500000       3.272954
       14      12.684615       3.362821
       15      12.423077       3.356496
       16      15.392308       4.161717
       17      12.915385       3.439712
       18      12.292308       3.228129
       19      12.900000       3.355408
       20      12.753846       3.320743
       21      12.784615       3.371531
       22      12.984615       3.332735
       23      14.853846       3.806813
       24      12.400000       3.262880
       25      12.769231       3.536003
       26      12.684615       3.325286
       27      13.330769       3.464872
       28      14.915385       3.993712
       29      14.146154       4.001554
       30      12.376923       3.537168
       31      14.323077       4.028546

 Density error is 6590.718126987920
                          Error Threshold = 0.000198158425

       Energy                       Rydberg                            eV
   E_KohnSham            -2789.228405992874           -37949.399344960439
     E_Harris            -2879.608027754090           -39179.077183997768
      E_Fermi               -0.650633391617               -8.852321435056

 PW ALGORITHM --------------- ION=   1  ELEC=   4--------------------------------
  K-point    CG iter num      Time(Sec)
        1       8.907692       2.597480
        2       9.938462       2.905706
        3       9.600000       2.589596
        4      10.223077       2.641017
        5       9.338462       2.435804
        6       8.461538       2.214809
        7       9.869231       2.615614
        8      10.261538       2.730631
        9       9.661538       2.512007
       10       9.984615       2.628992
       11       9.138462       2.405348
       12       9.046154       2.382926
       13      10.007692       2.615879
       14       9.669231       2.528631
       15      10.330769       2.714768
       16       9.853846       2.582068
       17       9.807692       2.549111
       18       9.953846       2.559109
       19       9.576923       2.477854
       20       8.961538       2.400608
       21       9.515385       2.470540
       22       9.484615       2.402233
       23      10.153846       2.639261
       24       9.961538       2.630582
       25       9.769231       2.541430
       26       8.792308       2.281161
       27       9.438462       2.452393
       28       9.469231       2.473243
       29       9.146154       2.387628
       30       9.223077       2.383542
       31       8.607692       2.266713

 Density error is 2879.102473739834
                          Error Threshold = 0.000198158425

       Energy                       Rydberg                            eV
   E_KohnSham            -2767.519582663142           -37654.035650800739
     E_Harris            -2805.853205105805           -38175.591341001636
      E_Fermi               +0.380041912603               +5.170735490215

 PW ALGORITHM --------------- ION=   1  ELEC=   5--------------------------------
  K-point    CG iter num      Time(Sec)
        1       7.815385       2.039798
        2       7.630769       1.946259
        3       7.961538       2.119582
        4       8.230769       2.105475
        5       8.638462       2.226518
        6       7.838462       2.016030
        7       7.484615       1.989064
        8       7.792308       2.052460
        9       8.500000       2.247514
       10       8.861538       2.333003
       11       8.415385       2.188137
       12       8.261538       2.174388
       13       8.853846       2.336896
       14       8.592308       2.339454
       15       7.669231       2.012671
       16       7.953846       2.087236
       17       8.523077       2.252928
       18       8.738462       2.302623
       19       8.346154       2.196996
       20       7.753846       2.048518
       21       8.330769       2.187897
       22       8.676923       2.233510
       23       8.530769       2.229112
       24       8.876923       2.336094
       25       8.338462       2.201591
       26       8.030769       2.124600
       27       7.915385       2.061265
       28       8.453846       2.176117
       29       8.400000       2.195455
       30       7.746154       2.031953
       31       7.884615       2.053551

 Density error is 1059.917275950043
                          Error Threshold = 0.000198158425

       Energy                       Rydberg                            eV
   E_KohnSham            -2762.669203934124           -37588.042862628099
     E_Harris            -2774.338133521888           -37746.806794582481
      E_Fermi               +0.807618514705              +10.988213610285

 PW ALGORITHM --------------- ION=   1  ELEC=   6--------------------------------
  K-point    CG iter num      Time(Sec)
        1       5.976923       1.594796
        2       5.923077       1.562856
        3       6.053846       1.636594
        4       6.869231       1.807856
        5       7.107692       1.884682
        6       7.423077       1.983607
        7       6.069231       1.614310
        8       5.530769       1.480158
        9       6.330769       1.725317
       10       6.592308       1.739826
       11       6.884615       1.872689
       12       6.884615       1.833499
       13       6.561538       1.792640
       14       6.300000       1.690903
       15       5.469231       1.453068
       16       5.915385       1.598360
       17       6.300000       1.705414
       18       6.615385       1.751294
       19       7.023077       1.868161
       20       7.100000       1.881661
       21       7.023077       1.880808
       22       6.700000       1.750937
       23       6.576923       1.755048
       24       6.576923       1.764647
       25       7.015385       1.864836
       26       7.376923       1.995825
       27       7.084615       1.855739
       28       6.576923       1.781897
       29       6.792308       1.771164
       30       7.169231       1.914802
       31       7.346154       1.951393

 Density error is 1688.572375307589
                          Error Threshold = 0.000198158425

       Energy                       Rydberg                            eV
   E_KohnSham            -2761.334604023903           -37569.884699298804
     E_Harris            -2774.374920724723           -37747.307310154523
      E_Fermi               +0.819284464996              +11.146937006828

 PW ALGORITHM --------------- ION=   1  ELEC=   7--------------------------------
  K-point    CG iter num      Time(Sec)
        1       5.992308       1.583661
        2       6.023077       1.596025
        3       6.053846       1.627138
        4       6.238462       1.600501
        5       6.484615       1.744442
        6       6.207692       1.627320
        7       5.784615       1.569101
        8       6.269231       1.717503
        9       6.684615       1.792001
       10       6.676923       1.819584
       11       6.415385       1.699264
       12       6.453846       1.771436
       13       6.800000       1.805276
       14       6.676923       1.836857
       15       6.292308       1.729280
       16       6.023077       1.636961
       17       6.661538       1.812398
       18       7.100000       1.912210
       19       7.453846       1.988394
       20       7.130769       1.923819
       21       7.461538       2.006634
       22       6.953846       1.834609
       23       6.323077       1.685755
       24       6.753846       1.811270
       25       7.453846       2.002026
       26       7.684615       2.045281
       27       7.907692       2.102787
       28       6.461538       1.740768
       29       6.423077       1.732897
       30       7.607692       2.042613
       31       6.361538       1.708895

 Density error is 134.705316957236
                          Error Threshold = 0.000198158425

       Energy                       Rydberg                            eV
   E_KohnSham            -2766.809218274575           -37644.370647459946
     E_Harris            -2767.746586965146           -37657.124202778505
      E_Fermi               +0.857454067975              +11.666261097738

 PW ALGORITHM --------------- ION=   1  ELEC=   8--------------------------------
  K-point    CG iter num      Time(Sec)
        1       3.530769       0.915045
        2       3.938462       1.005775
        3       3.130769       0.819758
        4       2.776923       0.676039
        5       2.507692       0.610097
        6       2.384615       0.569635
        7       3.930769       1.039430
        8       4.215385       1.123356
        9       4.200000       1.116455
       10       3.292308       0.869448
       11       3.161538       0.801358
       12       3.192308       0.808696
       13       3.276923       0.860490
       14       4.215385       1.122432
       15       4.207692       1.136790
       16       3.123077       0.784956
       17       4.192308       1.122889
       18       4.338462       1.163426
       19       4.092308       1.074852
       20       3.792308       0.996459
       21       4.069231       1.084800
       22       4.292308       1.143903
       23       2.915385       0.748512
       24       3.284615       0.846769
       25       4.046154       1.068612
       26       3.561538       0.949424
       27       3.630769       0.976234
       28       2.515385       0.600031
       29       3.169231       0.820348
       30       3.661538       1.000551
       31       2.392308       0.548574

 Density error is 16.316978897086
                          Error Threshold = 0.000198158425

       Energy                       Rydberg                            eV
   E_KohnSham            -2766.758860076110           -37643.685489019808
     E_Harris            -2767.207586691824           -37649.790727837775
      E_Fermi               +0.860132808868              +11.702707237352

 PW ALGORITHM --------------- ION=   1  ELEC=   9--------------------------------
  K-point    CG iter num      Time(Sec)
        1       4.700000       1.250618
        2       4.146154       1.069284
        3       3.015385       0.744821
        4       2.623077       0.652335
        5       2.638462       0.639330
        6       2.423077       0.586312
        7       4.476923       1.204634
        8       5.215385       1.403217
        9       4.646154       1.243874
       10       3.707692       0.992241
       11       3.715385       0.992247
       12       3.638462       0.950338
       13       3.692308       0.977070
       14       4.669231       1.264017
       15       5.438462       1.479642
       16       3.030769       0.753457
       17       4.661538       1.252538
       18       4.076923       1.063574
       19       3.992308       1.052210
       20       3.507692       0.921101
       21       4.007692       1.057547
       22       4.353846       1.107892
       23       2.615385       0.634727
       24       3.700000       0.985727
       25       3.953846       1.045761
       26       3.461538       0.872538
       27       3.469231       0.884375
       28       2.630769       0.667276
       29       3.669231       0.956752
       30       3.430769       0.877476
       31       2.423077       0.592801

 Density error is 29.572517672652
                          Error Threshold = 0.000198158425

       Energy                       Rydberg                            eV
   E_KohnSham            -2766.921448696790           -37645.897620691016
     E_Harris            -2767.230944510572           -37650.108527265598
      E_Fermi               +0.861326657016              +11.718950374707

 PW ALGORITHM --------------- ION=   1  ELEC=  10--------------------------------
  K-point    CG iter num      Time(Sec)
        1       4.192308       1.083637
        2       3.192308       0.815370
        3       2.592308       0.640051
        4       2.261538       0.533525
        5       2.276923       0.543199
        6       2.246154       0.533629
        7       3.023077       0.763201
        8       3.000000       0.758031
        9       2.984615       0.783453
       10       2.630769       0.625703
       11       2.684615       0.692193
       12       2.676923       0.669368
       13       2.692308       0.671388
       14       2.984615       0.756866
       15       2.923077       0.726915
       16       2.615385       0.678654
       17       2.984615       0.753424
       18       2.530769       0.618909
       19       2.676923       0.668106
       20       2.553846       0.631164
       21       2.661538       0.659751
       22       2.515385       0.603763
       23       2.269231       0.542976
       24       2.630769       0.650804
       25       2.576923       0.636004
       26       2.600000       0.635779
       27       2.592308       0.659251
       28       2.269231       0.529872
       29       2.684615       0.688874
       30       2.530769       0.593742
       31       2.246154       0.544768

 Density error is 0.857431706777
                          Error Threshold = 0.000198158425

       Energy                       Rydberg                            eV
   E_KohnSham            -2767.130844278959           -37648.746593744538
     E_Harris            -2767.094066324520           -37648.246204003393
      E_Fermi               +0.866448580570              +11.788637719759

 PW ALGORITHM --------------- ION=   1  ELEC=  11--------------------------------
  K-point    CG iter num      Time(Sec)
        1       3.815385       1.009421
        2       3.415385       0.876084
        3       2.692308       0.699117
        4       2.515385       0.631036
        5       2.415385       0.551908
        6       2.269231       0.561868
        7       3.407692       0.875877
        8       3.623077       0.936102
        9       3.623077       0.968716
       10       3.092308       0.809549
       11       2.815385       0.688287
       12       2.815385       0.736037
       13       3.061538       0.777139
       14       3.630769       0.955289
       15       3.638462       0.958613
       16       2.692308       0.694272
       17       3.630769       0.947602
       18       4.076923       1.086710
       19       3.076923       0.783768
       20       2.923077       0.758316
       21       3.084615       0.782606
       22       3.984615       1.029100
       23       2.507692       0.637380
       24       3.069231       0.774957
       25       3.392308       0.873806
       26       2.892308       0.751681
       27       2.884615       0.709881
       28       2.423077       0.604586
       29       2.807692       0.693196
       30       2.961538       0.738607
       31       2.269231       0.544945

 Density error is 97.737555993297
                          Error Threshold = 0.000198158425

       Energy                       Rydberg                            eV
   E_KohnSham            -2766.952357865360           -37646.318161504008
     E_Harris            -2767.532568000203           -37654.212325375229
      E_Fermi               +0.858850375782              +11.685258840078

 PW ALGORITHM --------------- ION=   1  ELEC=  12--------------------------------
  K-point    CG iter num      Time(Sec)
        1       2.953846       0.733955
        2       3.592308       0.914152
        3       2.538462       0.632519
        4       2.415385       0.553076
        5       2.315385       0.572456
        6       2.315385       0.518597
        7       3.615385       0.953561
        8       3.576923       0.946782
        9       3.192308       0.807295
       10       2.946154       0.737243
       11       2.853846       0.740691
       12       2.861538       0.696074
       13       2.976923       0.769126
       14       3.192308       0.809377
       15       3.607692       0.946855
       16       2.538462       0.616870
       17       3.192308       0.808103
       18       3.392308       0.862176
       19       3.353846       0.868830
       20       3.169231       0.822824
       21       3.361538       0.863256
       22       3.415385       0.855412
       23       2.415385       0.584725
       24       2.961538       0.731843
       25       3.330769       0.877149
       26       2.884615       0.723598
       27       2.884615       0.721163
       28       2.330769       0.567049
       29       2.861538       0.700506
       30       3.292308       0.857488
       31       2.315385       0.552142

 Density error is 16.642091167376
                          Error Threshold = 0.000198158425

       Energy                       Rydberg                            eV
   E_KohnSham            -2767.035722228824           -37647.452391857267
     E_Harris            -2767.170439272369           -37649.285311267195
      E_Fermi               +0.864092770159              +11.756585274773

 PW ALGORITHM --------------- ION=   1  ELEC=  13--------------------------------
  K-point    CG iter num      Time(Sec)
        1       3.700000       0.965652
        2       2.692308       0.619106
        3       2.484615       0.632665
        4       2.230769       0.489832
        5       2.200000       0.523091
        6       2.230769       0.520549
        7       2.623077       0.643189
        8       2.684615       0.665606
        9       2.715385       0.695239
       10       2.515385       0.598309
       11       2.469231       0.631820
       12       2.469231       0.579259
       13       2.515385       0.646673
       14       2.723077       0.649130
       15       2.676923       0.685955
       16       2.469231       0.594229
       17       2.730769       0.699293
       18       2.461538       0.642079
       19       2.415385       0.587187
       20       2.492308       0.603925
       21       2.430769       0.596181
       22       2.476923       0.585792
       23       2.230769       0.538742
       24       2.515385       0.599356
       25       2.400000       0.600269
       26       2.330769       0.532125
       27       2.330769       0.583835
       28       2.200000       0.494077
       29       2.469231       0.624291
       30       2.323077       0.538299
       31       2.223077       0.530385

 Density error is 1.805810080829
                          Error Threshold = 0.000198158425

       Energy                       Rydberg                            eV
   E_KohnSham            -2767.070890499052           -37647.930880721164
     E_Harris            -2767.108542856599           -37648.443167326950
      E_Fermi               +0.865754273866              +11.779191192436

 PW ALGORITHM --------------- ION=   1  ELEC=  14--------------------------------
  K-point    CG iter num      Time(Sec)
        1       3.115385       0.806167
        2       2.392308       0.534640
        3       2.330769       0.584617
        4       2.107692       0.462672
        5       2.107692       0.497441
        6       2.107692       0.491853
        7       2.361538       0.562174
        8       2.330769       0.567704
        9       2.323077       0.535914
       10       2.238462       0.553671
       11       2.184615       0.492383
       12       2.184615       0.525284
       13       2.238462       0.529325
       14       2.315385       0.558123
       15       2.346154       0.567807
       16       2.323077       0.558548
       17       2.315385       0.559689
       18       2.246154       0.524964
       19       2.253846       0.546719
       20       2.215385       0.498131
       21       2.253846       0.563971
       22       2.246154       0.509400
       23       2.107692       0.497368
       24       2.238462       0.533633
       25       2.253846       0.536639
       26       2.153846       0.509474
       27       2.161538       0.484959
       28       2.115385       0.516246
       29       2.184615       0.503815
       30       2.176923       0.514586
       31       2.107692       0.495991

 Density error is 2.192335194063
                          Error Threshold = 0.000198158425

       Energy                       Rydberg                            eV
   E_KohnSham            -2767.055596736413           -37647.722798405419
     E_Harris            -2767.094886744765           -37648.257366393475
      E_Fermi               +0.866768475809              +11.792990117778

 PW ALGORITHM --------------- ION=   1  ELEC=  15--------------------------------
  K-point    CG iter num      Time(Sec)
        1       3.846154       0.986345
        2       2.815385       0.712840
        3       2.607692       0.637209
        4       2.138462       0.510284
        5       2.153846       0.477484
        6       2.100000       0.495381
        7       2.807692       0.693346
        8       2.569231       0.660995
        9       2.700000       0.643308
       10       2.500000       0.635096
       11       2.400000       0.558045
       12       2.407692       0.609857
       13       2.507692       0.589985
       14       2.700000       0.692168
       15       2.569231       0.625501
       16       2.523077       0.632431
       17       2.707692       0.673560
       18       2.446154       0.595687
       19       2.453846       0.601257
       20       2.253846       0.539809
       21       2.469231       0.603874
       22       2.438462       0.582235
       23       2.138462       0.482313
       24       2.500000       0.635434
       25       2.530769       0.610751
       26       2.284615       0.568763
       27       2.276923       0.520011
       28       2.153846       0.531048
       29       2.400000       0.566864
       30       2.261538       0.540238
       31       2.100000       0.490850

 Density error is 14.240931727273
                          Error Threshold = 0.000198158425

       Energy                       Rydberg                            eV
   E_KohnSham            -2767.001647899434           -37646.988786822039
     E_Harris            -2767.147782555524           -37648.977050820133
      E_Fermi               +0.865824267106              +11.780143499314

 PW ALGORITHM --------------- ION=   1  ELEC=  16--------------------------------
  K-point    CG iter num      Time(Sec)
        1       4.161538       1.105663
        2       2.892308       0.707944
        3       2.538462       0.621416
        4       2.146154       0.497077
        5       2.138462       0.496174
        6       2.161538       0.519541
        7       2.900000       0.725248
        8       2.669231       0.661622
        9       2.638462       0.651097
       10       2.438462       0.597952
       11       2.361538       0.577818
       12       2.353846       0.573710
       13       2.438462       0.594315
       14       2.646154       0.654181
       15       2.661538       0.662147
       16       2.507692       0.628127
       17       2.638462       0.690556
       18       2.369231       0.623481
       19       2.607692       0.674183
       20       2.223077       0.502153
       21       2.692308       0.702998
       22       2.353846       0.529378
       23       2.153846       0.511993
       24       2.430769       0.587444
       25       2.361538       0.576927
       26       2.369231       0.573732
       27       2.369231       0.578475
       28       2.138462       0.509352
       29       2.353846       0.568414
       30       2.215385       0.525117
       31       2.161538       0.483840

 Density error is 1.694696299682
                          Error Threshold = 0.000198158425

       Energy                       Rydberg                            eV
   E_KohnSham            -2767.070692283338           -37647.928183858028
     E_Harris            -2767.093226578725           -37648.234778675709
      E_Fermi               +0.865787826825              +11.779647703851

 PW ALGORITHM --------------- ION=   1  ELEC=  17--------------------------------
  K-point    CG iter num      Time(Sec)
        1       3.630769       0.924567
        2       2.446154       0.576902
        3       2.338462       0.570225
        4       2.092308       0.485253
        5       2.076923       0.476713
        6       2.084615       0.498918
        7       2.430769       0.562458
        8       2.269231       0.572271
        9       2.392308       0.557685
       10       2.223077       0.538728
       11       2.176923       0.511202
       12       2.169231       0.522119
       13       2.223077       0.535325
       14       2.392308       0.580666
       15       2.276923       0.551870
       16       2.346154       0.559943
       17       2.392308       0.600969
       18       2.230769       0.503808
       19       2.284615       0.575914
       20       2.130769       0.475935
       21       2.238462       0.542115
       22       2.230769       0.517829
       23       2.092308       0.495269
       24       2.223077       0.535803
       25       2.215385       0.512221
       26       2.169231       0.536174
       27       2.169231       0.486786
       28       2.084615       0.491366
       29       2.169231       0.513670
       30       2.130769       0.498899
       31       2.084615       0.496120

 Density error is 2.762966228036
                          Error Threshold = 0.000198158425

       Energy                       Rydberg                            eV
   E_KohnSham            -2767.055042733729           -37647.715260812212
     E_Harris            -2767.100126310011           -37648.328654335863
      E_Fermi               +0.865628465166              +11.777479477258

 PW ALGORITHM --------------- ION=   1  ELEC=  18--------------------------------
  K-point    CG iter num      Time(Sec)
        1       4.292308       1.109627
        2       2.646154       0.665534
        3       2.461538       0.572888
        4       2.176923       0.526084
        5       2.169231       0.482883
        6       2.161538       0.511966
        7       2.715385       0.673830
        8       2.507692       0.616434
        9       2.561538       0.618959
       10       2.453846       0.612052
       11       2.392308       0.569761
       12       2.400000       0.593013
       13       2.446154       0.588382
       14       2.561538       0.640785
       15       2.492308       0.596073
       16       2.469231       0.623496
       17       2.561538       0.616368
       18       2.376923       0.594075
       19       2.384615       0.563286
       20       2.261538       0.543351
       21       2.353846       0.562177
       22       2.353846       0.559821
       23       2.176923       0.517436
       24       2.469231       0.599304
       25       2.307692       0.555918
       26       2.323077       0.553836
       27       2.323077       0.573656
       28       2.169231       0.484287
       29       2.400000       0.603071
       30       2.261538       0.506997
       31       2.161538       0.518418

 Density error is 2.548828702417
                          Error Threshold = 0.000198158425

       Energy                       Rydberg                            eV
   E_KohnSham            -2767.055796884005           -37647.725521553111
     E_Harris            -2767.112708264532           -37648.499840609322
      E_Fermi               +0.863525826593              +11.748871611825

 PW ALGORITHM --------------- ION=   1  ELEC=  19--------------------------------
  K-point    CG iter num      Time(Sec)
        1       3.623077       0.952224
        2       2.530769       0.602912
        3       2.376923       0.581629
        4       2.115385       0.464135
        5       2.107692       0.511483
        6       2.107692       0.464728
        7       2.523077       0.623135
        8       2.292308       0.541682
        9       2.400000       0.586364
       10       2.284615       0.547468
       11       2.261538       0.541829
       12       2.261538       0.544157
       13       2.284615       0.544499
       14       2.400000       0.594278
       15       2.253846       0.522214
       16       2.292308       0.569168
       17       2.392308       0.551180
       18       2.246154       0.562043
       19       2.238462       0.510802
       20       2.146154       0.514611
       21       2.238462       0.599398
       22       2.230769       0.522698
       23       2.115385       0.497426
       24       2.292308       0.543769
       25       2.215385       0.538239
       26       2.246154       0.508552
       27       2.253846       0.567136
       28       2.107692       0.475003
       29       2.261538       0.542913
       30       2.146154       0.507977
       31       2.107692       0.493452

 Density error is 1.416560564336
                          Error Threshold = 0.000198158425

       Energy                       Rydberg                            eV
   E_KohnSham            -2767.080239921192           -37648.058086135279
     E_Harris            -2767.091201893494           -37648.207231419910
      E_Fermi               +0.866651215121              +11.791394704273

 PW ALGORITHM --------------- ION=   1  ELEC=  20--------------------------------
  K-point    CG iter num      Time(Sec)
        1       2.323077       0.544501
        2       2.146154       0.514330
        3       2.000000       0.436785
        4       2.000000       0.458401
        5       2.000000       0.466403
        6       2.000000       0.435658
        7       2.000000       0.482205
        8       2.000000       0.448229
        9       2.023077       0.475744
       10       2.023077       0.475152
       11       2.000000       0.437372
       12       2.000000       0.475738
       13       2.023077       0.466850
       14       2.023077       0.470775
       15       2.000000       0.477308
       16       2.000000       0.435973
       17       2.023077       0.475959
       18       2.000000       0.467543
       19       2.023077       0.463165
       20       2.000000       0.483413
       21       2.000000       0.437083
       22       2.000000       0.462476
       23       2.000000       0.466218
       24       2.023077       0.442703
       25       2.000000       0.474548
       26       2.000000       0.455271
       27       2.000000       0.467194
       28       2.000000       0.466684
       29       2.000000       0.433623
       30       2.000000       0.466298
       31       2.000000       0.468418

 Density error is 0.029759215282
                          Error Threshold = 0.000198158425

       Energy                       Rydberg                            eV
   E_KohnSham            -2767.085481740005           -37648.129404739018
     E_Harris            -2767.085813709339           -37648.133921413530
      E_Fermi               +0.866839345065              +11.793954343477

 PW ALGORITHM --------------- ION=   1  ELEC=  21--------------------------------
  K-point    CG iter num      Time(Sec)
        1       3.315385       0.833289
        2       2.400000       0.576014
        3       2.484615       0.596781
        4       2.100000       0.486230
        5       2.084615       0.489798
        6       2.100000       0.480507
        7       2.623077       0.665826
        8       2.492308       0.605197
        9       2.423077       0.588948
       10       2.361538       0.564082
       11       2.315385       0.574948
       12       2.323077       0.537192
       13       2.315385       0.581710
       14       2.423077       0.557974
       15       2.538462       0.648429
       16       2.576923       0.604131
       17       2.423077       0.614796
       18       2.384615       0.543584
       19       2.446154       0.625711
       20       2.200000       0.493122
       21       2.292308       0.567310
       22       2.407692       0.562186
       23       2.100000       0.494974
       24       2.323077       0.564530
       25       2.330769       0.561912
       26       2.238462       0.536835
       27       2.238462       0.527497
       28       2.100000       0.508719
       29       2.307692       0.523594
       30       2.200000       0.538542
       31       2.076923       0.474091

 Density error is 0.193525489560
                          Error Threshold = 0.000013526916

       Energy                       Rydberg                            eV
   E_KohnSham            -2767.085299957630           -37648.126931462924
     E_Harris            -2767.086416922865           -37648.142128554588
      E_Fermi               +0.866851693104              +11.794122347164

 PW ALGORITHM --------------- ION=   1  ELEC=  22--------------------------------
  K-point    CG iter num      Time(Sec)
        1       2.161538       0.506816
        2       2.023077       0.455045
        3       2.053846       0.493054
        4       2.061538       0.443231
        5       2.069231       0.488624
        6       2.061538       0.481942
        7       2.076923       0.482372
        8       2.053846       0.493862
        9       2.000000       0.435539
       10       2.100000       0.502731
       11       2.069231       0.492084
       12       2.061538       0.481775
       13       2.115385       0.516898
       14       2.000000       0.436931
       15       2.053846       0.487881
       16       2.115385       0.501047
       17       2.000000       0.462162
       18       2.038462       0.489610
       19       2.030769       0.444457
       20       2.038462       0.481105
       21       2.115385       0.506306
       22       2.030769       0.459996
       23       2.061538       0.500533
       24       2.100000       0.464383
       25       2.061538       0.486602
       26       2.084615       0.497479
       27       2.084615       0.491481
       28       2.069231       0.490249
       29       2.069231       0.453158
       30       2.038462       0.478103
       31       2.061538       0.484052

 Density error is 0.019283531701
                          Error Threshold = 0.000013526916

       Energy                       Rydberg                            eV
   E_KohnSham            -2767.085458864603           -37648.129093503216
     E_Harris            -2767.085788456956           -37648.133577837230
      E_Fermi               +0.866871489089              +11.794391685361

 PW ALGORITHM --------------- ION=   1  ELEC=  23--------------------------------
  K-point    CG iter num      Time(Sec)
        1       2.715385       0.700254
        2       2.100000       0.485298
        3       2.230769       0.533504
        4       2.061538       0.446179
        5       2.046154       0.494865
        6       2.053846       0.455076
        7       2.184615       0.524357
        8       2.146154       0.513158
        9       2.130769       0.496930
       10       2.107692       0.512217
       11       2.076923       0.460262
       12       2.076923       0.496090
       13       2.107692       0.501038
       14       2.130769       0.508563
       15       2.123077       0.509633
       16       2.223077       0.501086
       17       2.130769       0.528608
       18       2.069231       0.461974
       19       2.123077       0.506229
       20       2.115385       0.504600
       21       2.123077       0.494826
       22       2.069231       0.494381
       23       2.061538       0.451565
       24       2.107692       0.499825
       25       2.230769       0.538338
       26       2.092308       0.494038
       27       2.107692       0.506271
       28       2.046154       0.448453
       29       2.076923       0.494234
       30       2.100000       0.485636
       31       2.053846       0.484898

 Density error is 0.017144666614
                          Error Threshold = 0.000008765242

       Energy                       Rydberg                            eV
   E_KohnSham            -2767.085510197204           -37648.129791919084
     E_Harris            -2767.085911044337           -37648.135245724116
      E_Fermi               +0.866760249373              +11.792878191371

 PW ALGORITHM --------------- ION=   1  ELEC=  24--------------------------------
  K-point    CG iter num      Time(Sec)
        1       3.146154       0.789180
        2       2.300000       0.535919
        3       2.276923       0.551690
        4       2.100000       0.488131
        5       2.107692       0.473312
        6       2.092308       0.509282
        7       2.346154       0.537091
        8       2.253846       0.560639
        9       2.346154       0.557164
       10       2.300000       0.556653
       11       2.223077       0.532526
       12       2.230769       0.539396
       13       2.315385       0.563338
       14       2.346154       0.572037
       15       2.238462       0.545012
       16       2.292308       0.534694
       17       2.346154       0.590546
       18       2.223077       0.498830
       19       2.284615       0.580124
       20       2.146154       0.488699
       21       2.246154       0.543083
       22       2.192308       0.516360
       23       2.107692       0.496822
       24       2.300000       0.555402
       25       2.276923       0.529683
       26       2.169231       0.542502
       27       2.176923       0.489269
       28       2.107692       0.500390
       29       2.230769       0.527546
       30       2.146154       0.510371
       31       2.092308       0.497540

 Density error is 0.413859390823
                          Error Threshold = 0.000007793030

       Energy                       Rydberg                            eV
   E_KohnSham            -2767.082514502660           -37648.089033403812
     E_Harris            -2767.087260817606           -37648.153610331574
      E_Fermi               +0.866618154991              +11.790944898126

 PW ALGORITHM --------------- ION=   1  ELEC=  25--------------------------------
  K-point    CG iter num      Time(Sec)
        1       3.353846       0.841962
        2       2.407692       0.573317
        3       2.384615       0.584943
        4       2.123077       0.492810
        5       2.092308       0.491166
        6       2.092308       0.456616
        7       2.461538       0.634351
        8       2.330769       0.533824
        9       2.438462       0.628137
       10       2.346154       0.537487
       11       2.253846       0.556446
       12       2.269231       0.540555
       13       2.346154       0.574579
       14       2.438462       0.597902
       15       2.323077       0.565763
       16       2.392308       0.585392
       17       2.438462       0.601565
       18       2.315385       0.561502
       19       2.376923       0.582247
       20       2.169231       0.519246
       21       2.369231       0.576122
       22       2.284615       0.543849
       23       2.115385       0.467361
       24       2.346154       0.598555
       25       2.338462       0.541772
       26       2.184615       0.529221
       27       2.184615       0.513478
       28       2.092308       0.499446
       29       2.269231       0.548734
       30       2.169231       0.501867
       31       2.092308       0.508727

 Density error is 0.230019045296
                          Error Threshold = 0.000007793030

       Energy                       Rydberg                            eV
   E_KohnSham            -2767.084331235397           -37648.113751320780
     E_Harris            -2767.086560601702           -37648.144083405452
      E_Fermi               +0.866712440347              +11.792227716210

 PW ALGORITHM --------------- ION=   1  ELEC=  26--------------------------------
  K-point    CG iter num      Time(Sec)
        1       3.092308       0.796316
        2       2.400000       0.567658
        3       2.276923       0.551088
        4       2.092308       0.451775
        5       2.107692       0.514362
        6       2.092308       0.475552
        7       2.376923       0.578611
        8       2.246154       0.542794
        9       2.376923       0.603689
       10       2.315385       0.602138
       11       2.207692       0.530629
       12       2.207692       0.532282
       13       2.315385       0.540581
       14       2.376923       0.601981
       15       2.246154       0.510297
       16       2.284615       0.578697
       17       2.376923       0.555884
       18       2.223077       0.541702
       19       2.315385       0.551219
       20       2.169231       0.518901
       21       2.315385       0.564550
       22       2.223077       0.524600
       23       2.092308       0.494429
       24       2.315385       0.530905
       25       2.292308       0.572177
       26       2.176923       0.487451
       27       2.176923       0.523366
       28       2.107692       0.495372
       29       2.200000       0.528915
       30       2.161538       0.511142
       31       2.092308       0.461638

 Density error is 0.093203930474
                          Error Threshold = 0.000007793030

       Energy                       Rydberg                            eV
   E_KohnSham            -2767.085007604941           -37648.122953800528
     E_Harris            -2767.086062361190           -37648.137304495518
      E_Fermi               +0.866618213812              +11.790945698428

 PW ALGORITHM --------------- ION=   1  ELEC=  27--------------------------------
  K-point    CG iter num      Time(Sec)
        1       2.992308       0.739479
        2       2.223077       0.525081
        3       2.261538       0.519077
        4       2.076923       0.495084
        5       2.076923       0.465291
        6       2.061538       0.483151
        7       2.200000       0.526599
        8       2.169231       0.510637
        9       2.200000       0.535998
       10       2.169231       0.485288
       11       2.123077       0.522264
       12       2.115385       0.493546
       13       2.176923       0.521719
       14       2.200000       0.529150
       15       2.169231       0.512689
       16       2.261538       0.553331
       17       2.200000       0.495147
       18       2.130769       0.526249
       19       2.138462       0.491021
       20       2.100000       0.498311
       21       2.130769       0.509808
       22       2.146154       0.489854
       23       2.076923       0.507253
       24       2.161538       0.482267
       25       2.130769       0.507710
       26       2.115385       0.499254
       27       2.115385       0.503118
       28       2.076923       0.490140
       29       2.123077       0.469595
       30       2.092308       0.502233
       31       2.061538       0.476362

 Density error is 0.030074690109
                          Error Threshold = 0.000007793030

       Energy                       Rydberg                            eV
   E_KohnSham            -2767.085464989072           -37648.129176830887
     E_Harris            -2767.085882497980           -37648.134857330995
      E_Fermi               +0.866820336081              +11.793695712970

 PW ALGORITHM --------------- ION=   1  ELEC=  28--------------------------------
  K-point    CG iter num      Time(Sec)
        1       2.207692       0.523600
        2       2.000000       0.449853
        3       2.169231       0.529724
        4       2.000000       0.426962
        5       2.000000       0.465059
        6       2.000000       0.464903
        7       2.000000       0.443002
        8       2.000000       0.489110
        9       2.015385       0.445672
       10       2.000000       0.468842
       11       2.000000       0.470735
       12       2.000000       0.438633
       13       2.000000       0.477872
       14       2.015385       0.465702
       15       2.000000       0.469842
       16       2.161538       0.515394
       17       2.015385       0.440769
       18       2.015385       0.473062
       19       2.030769       0.471651
       20       2.015385       0.467694
       21       2.030769       0.489881
       22       2.015385       0.433261
       23       2.000000       0.466496
       24       2.000000       0.469485
       25       2.015385       0.448296
       26       2.015385       0.491939
       27       2.015385       0.450983
       28       2.000000       0.467986
       29       2.000000       0.466450
       30       2.000000       0.431481
       31       2.000000       0.472886

 Density error is 0.000474302152
                          Error Threshold = 0.000007793030

       Energy                       Rydberg                            eV
   E_KohnSham            -2767.085671073170           -37648.131980748884
     E_Harris            -2767.085678732983           -37648.132084965990
      E_Fermi               +0.866796897301              +11.793376812015

[...]
      89       5.244378       0.040000
      90       5.847533       0.040000
      91       5.849021       0.040000
      92       6.572086       0.040000
      93       6.587793       0.040000
      94       7.428636       0.040000
      95       7.431393       0.040000
      96       8.327387       0.040000
      97       8.378766       0.040000
      98       8.912541       0.040000
      99       8.961822       0.040000
     100       8.997934       0.040000
     101       9.136120       0.040000
     102       9.144570       0.040000
     103       9.318179       0.040000
     104       9.349416       0.040000
     105       9.802815       0.040000
     106       9.807378       0.040000
     107      10.187464       0.040000
     108      10.192537       0.040000
     109      10.519046       0.040000
     110      10.642075       0.040000
     111      10.822883       0.040000
     112      11.251217       0.040000
     113      11.475927       0.040000
     114      11.647942       0.039177
     115      12.244227       0.000000
     116      12.260425       0.000000
     117      12.477761       0.000000
     118      12.489039       0.000000
     119      13.209999       0.000000
     120      13.251216       0.000000
     121      13.876149       0.000000
     122      13.895434       0.000000
     123      14.322065       0.000000
     124      14.330826       0.000000
     125      15.319735       0.000000
     126      15.410527       0.000000
     127      15.419551       0.000000
     128      15.721570       0.000000
     129      16.786755       0.000000
     130      16.796055       0.000000

 29/31 kpoint (Cartesian) = 0.848528 0.326599 0.000000 (524 pws)
       1     -91.691762       0.080000
       2     -91.690897       0.080000
       3     -91.677754       0.080000
       4     -91.676090       0.080000
       5     -91.671548       0.080000
       6     -91.667864       0.080000
       7     -91.661855       0.080000
       8     -91.660529       0.080000
       9     -91.653151       0.080000
      10     -91.651649       0.080000
      11     -91.648430       0.080000
      12     -91.648057       0.080000
      13     -91.643302       0.080000
      14     -91.642333       0.080000
      15     -91.642075       0.080000
      16     -91.624525       0.080000
      17     -91.618993       0.080000
      18     -91.618355       0.080000
      19     -91.578532       0.080000
      20     -91.577719       0.080000
      21     -53.303991       0.080000
      22     -53.303725       0.080000
      23     -53.302014       0.080000
      24     -53.301600       0.080000
      25     -53.293066       0.080000
      26     -53.292614       0.080000
      27     -53.290197       0.080000
      28     -53.289839       0.080000
      29     -53.286701       0.080000
      30     -53.286417       0.080000
      31     -53.284740       0.080000
      32     -53.284425       0.080000
      33     -53.284254       0.080000
      34     -53.283809       0.080000
      35     -53.280790       0.080000
      36     -53.280270       0.080000
      37     -53.274256       0.080000
      38     -53.273944       0.080000
      39     -53.273207       0.080000
      40     -53.272703       0.080000
      41     -53.270450       0.080000
      42     -53.269881       0.080000
      43     -53.269355       0.080000
      44     -53.269021       0.080000
      45     -53.267899       0.080000
      46     -53.266808       0.080000
      47     -53.266570       0.080000
      48     -53.262219       0.080000
      49     -53.262008       0.080000
      50     -53.261568       0.080000
      51     -53.261414       0.080000
      52     -53.259324       0.080000
      53     -53.259151       0.080000
      54     -53.257412       0.080000
      55     -53.256858       0.080000
      56     -53.255864       0.080000
      57     -53.255785       0.080000
      58     -53.255496       0.080000
      59     -53.255043       0.080000
      60     -53.253928       0.080000
      61     -53.253279       0.080000
      62     -53.251382       0.080000
      63     -53.251261       0.080000
      64     -53.249987       0.080000
      65     -53.249858       0.080000
      66     -53.245499       0.080000
      67     -53.238300       0.080000
      68     -53.237865       0.080000
      69     -53.233919       0.080000
      70     -53.232723       0.080000
      71     -53.225596       0.080000
      72     -53.225161       0.080000
      73     -53.224350       0.080000
      74     -53.224005       0.080000
      75     -53.197846       0.080000
      76     -53.197637       0.080000
      77     -53.188154       0.080000
      78     -53.187899       0.080000
      79     -53.184111       0.080000
      80     -53.183873       0.080000
      81       5.359981       0.080000
      82       5.422295       0.080000
      83       5.437975       0.080000
      84       5.608722       0.080000
      85       5.659139       0.080000
      86       5.967073       0.080000
      87       5.971377       0.080000
      88       6.432921       0.080000
      89       6.434596       0.080000
      90       7.018475       0.080000
      91       7.019609       0.080000
      92       7.640582       0.080000
      93       7.677370       0.080000
      94       7.729358       0.080000
      95       7.802715       0.080000
      96       7.818818       0.080000
      97       8.039253       0.080000
      98       8.080182       0.080000
      99       8.344507       0.080000
     100       8.346866       0.080000
     101       8.541876       0.080000
     102       8.546223       0.080000
     103       8.791226       0.080000
     104       8.798586       0.080000
     105       9.440598       0.080000
     106       9.440766       0.080000
     107       9.878241       0.080000
     108       9.885849       0.080000
     109      10.214369       0.080000
     110      10.227303       0.080000
     111      10.817339       0.080000
     112      10.820620       0.080000
     113      11.224660       0.080000
     114      11.229759       0.080000
     115      11.828640       0.024789
     116      12.055318       0.000009
     117      12.121044       0.000000
     118      12.405302       0.000000
     119      13.106996       0.000000
     120      13.111850       0.000000
     121      13.428443       0.000000
     122      13.442524       0.000000
     123      14.135360       0.000000
     124      14.249196       0.000000
     125      14.409666       0.000000
     126      14.521455       0.000000
     127      14.821525       0.000000
     128      14.879528       0.000000
     129      15.180192       0.000000
     130      15.210876       0.000000

 30/31 kpoint (Cartesian) = 0.565685 0.653197 0.000000 (538 pws)
       1     -91.681285       0.040000
       2     -91.678256       0.040000
       3     -91.675853       0.040000
       4     -91.673945       0.040000
       5     -91.668741       0.040000
       6     -91.666794       0.040000
       7     -91.652152       0.040000
       8     -91.650612       0.040000
       9     -91.647577       0.040000
      10     -91.646774       0.040000
      11     -91.645295       0.040000
      12     -91.644666       0.040000
      13     -91.642875       0.040000
      14     -91.642850       0.040000
      15     -91.641528       0.040000
      16     -91.623297       0.040000
      17     -91.616008       0.040000
      18     -91.613644       0.040000
      19     -91.575267       0.040000
      20     -91.574929       0.040000
      21     -53.302619       0.040000
      22     -53.302185       0.040000
      23     -53.300158       0.040000
      24     -53.299740       0.040000
      25     -53.292765       0.040000
      26     -53.292438       0.040000
      27     -53.291839       0.040000
      28     -53.291677       0.040000
      29     -53.287891       0.040000
      30     -53.287400       0.040000
      31     -53.285301       0.040000
      32     -53.284890       0.040000
      33     -53.283575       0.040000
      34     -53.282957       0.040000
      35     -53.281327       0.040000
      36     -53.280321       0.040000
      37     -53.275346       0.040000
      38     -53.274825       0.040000
      39     -53.272923       0.040000
      40     -53.272363       0.040000
      41     -53.268470       0.040000
      42     -53.267853       0.040000
      43     -53.267800       0.040000
      44     -53.267469       0.040000
      45     -53.266492       0.040000
      46     -53.265626       0.040000
      47     -53.265229       0.040000
      48     -53.263572       0.040000
      49     -53.263240       0.040000
      50     -53.261972       0.040000
      51     -53.261546       0.040000
      52     -53.259451       0.040000
      53     -53.258721       0.040000
      54     -53.258236       0.040000
      55     -53.257753       0.040000
      56     -53.257459       0.040000
      57     -53.256889       0.040000
      58     -53.256800       0.040000
      59     -53.256067       0.040000
      60     -53.255641       0.040000
      61     -53.255331       0.040000
      62     -53.254575       0.040000
      63     -53.253970       0.040000
      64     -53.250162       0.040000
      65     -53.249977       0.040000
      66     -53.244115       0.040000
      67     -53.236609       0.040000
      68     -53.236186       0.040000
      69     -53.235025       0.040000
      70     -53.233969       0.040000
      71     -53.226709       0.040000
      72     -53.226244       0.040000
      73     -53.225576       0.040000
      74     -53.225159       0.040000
      75     -53.196170       0.040000
      76     -53.195946       0.040000
      77     -53.188268       0.040000
      78     -53.187942       0.040000
      79     -53.186528       0.040000
      80     -53.186006       0.040000
      81       7.017912       0.040000
      82       7.045501       0.040000
      83       7.080538       0.040000
      84       7.088581       0.040000
      85       7.109085       0.040000
      86       7.127614       0.040000
      87       7.252054       0.040000
      88       7.290885       0.040000
      89       7.306080       0.040000
      90       7.334730       0.040000
      91       7.591673       0.040000
      92       7.596880       0.040000
      93       7.620834       0.040000
      94       7.633943       0.040000
      95       7.943583       0.040000
      96       7.963356       0.040000
      97       8.215196       0.040000
      98       8.231777       0.040000
      99       8.630440       0.040000
     100       8.631455       0.040000
     101       8.714811       0.040000
     102       8.715410       0.040000
     103       9.144420       0.040000
     104       9.165960       0.040000
     105       9.687357       0.040000
     106       9.704646       0.040000
     107      10.312483       0.040000
     108      10.314054       0.040000
     109      10.449488       0.040000
     110      10.450174       0.040000
     111      11.118716       0.040000
     112      11.189133       0.040000
     113      11.278729       0.040000
     114      11.404805       0.040000
     115      11.695740       0.036589
     116      11.763178       0.026558
     117      11.840857       0.010084
     118      11.863860       0.006434
     119      11.889551       0.003529
     120      12.015310       0.000036
     121      12.238372       0.000000
     122      12.474470       0.000000
     123      12.546042       0.000000
     124      12.899993       0.000000
     125      12.909035       0.000000
     126      13.157713       0.000000
     127      13.159905       0.000000
     128      13.327886       0.000000
     129      13.432967       0.000000
     130      13.450950       0.000000

 31/31 kpoint (Cartesian) = 0.707107 0.408248 0.000000 (522 pws)
       1     -91.691320       0.020000
       2     -91.689683       0.020000
       3     -91.682838       0.020000
       4     -91.678750       0.020000
       5     -91.678374       0.020000
       6     -91.668474       0.020000
       7     -91.661914       0.020000
       8     -91.660618       0.020000
       9     -91.658963       0.020000
      10     -91.656056       0.020000
      11     -91.653992       0.020000
      12     -91.650830       0.020000
      13     -91.646145       0.020000
      14     -91.643709       0.020000
      15     -91.640340       0.020000
      16     -91.631613       0.020000
      17     -91.619533       0.020000
      18     -91.618235       0.020000
      19     -91.582013       0.020000
      20     -91.579365       0.020000
      21     -53.305418       0.020000
      22     -53.305125       0.020000
      23     -53.303346       0.020000
      24     -53.302970       0.020000
      25     -53.293515       0.020000
      26     -53.293262       0.020000
      27     -53.288919       0.020000
      28     -53.288562       0.020000
      29     -53.287412       0.020000
      30     -53.287127       0.020000
      31     -53.284654       0.020000
      32     -53.284445       0.020000
      33     -53.284340       0.020000
      34     -53.283865       0.020000
      35     -53.280955       0.020000
      36     -53.280868       0.020000
      37     -53.275677       0.020000
      38     -53.275326       0.020000
      39     -53.273241       0.020000
      40     -53.271799       0.020000
      41     -53.271423       0.020000
      42     -53.270858       0.020000
      43     -53.270678       0.020000
      44     -53.270368       0.020000
      45     -53.268762       0.020000
      46     -53.268476       0.020000
      47     -53.268024       0.020000
      48     -53.262220       0.020000
      49     -53.261998       0.020000
      50     -53.261301       0.020000
      51     -53.260777       0.020000
      52     -53.258485       0.020000
      53     -53.258139       0.020000
      54     -53.258118       0.020000
      55     -53.257491       0.020000
      56     -53.255943       0.020000
      57     -53.255374       0.020000
      58     -53.254844       0.020000
      59     -53.254699       0.020000
      60     -53.253109       0.020000
      61     -53.252035       0.020000
      62     -53.251495       0.020000
      63     -53.250656       0.020000
      64     -53.250632       0.020000
      65     -53.249800       0.020000
      66     -53.246413       0.020000
      67     -53.239621       0.020000
      68     -53.239195       0.020000
      69     -53.234058       0.020000
      70     -53.232258       0.020000
      71     -53.225595       0.020000
      72     -53.225259       0.020000
      73     -53.223674       0.020000
      74     -53.223397       0.020000
      75     -53.199166       0.020000
      76     -53.198922       0.020000
      77     -53.188294       0.020000
      78     -53.187812       0.020000
      79     -53.183675       0.020000
      80     -53.183215       0.020000
      81       6.297985       0.020000
      82       6.326628       0.020000
      83       6.363460       0.020000
      84       6.369585       0.020000
      85       6.392835       0.020000
      86       6.412236       0.020000
      87       6.541503       0.020000
      88       6.577113       0.020000
      89       6.590211       0.020000
      90       6.625335       0.020000
      91       6.883282       0.020000
      92       6.890303       0.020000
      93       6.912770       0.020000
      94       6.927180       0.020000
      95       7.244970       0.020000
      96       7.262673       0.020000
      97       7.502666       0.020000
      98       7.518758       0.020000
      99       7.932937       0.020000
     100       7.933461       0.020000
     101       8.011718       0.020000
     102       8.013442       0.020000
     103       8.460255       0.020000
     104       8.478712       0.020000
     105       9.008472       0.020000
     106       9.014639       0.020000
     107       9.659560       0.020000
     108       9.659932       0.020000
     109       9.784763       0.020000
     110       9.786175       0.020000
     111      10.550756       0.020000
     112      10.556633       0.020000
     113      10.885455       0.020000
     114      10.941848       0.020000
     115      11.719600       0.016995
     116      11.745013       0.015025
     117      11.866976       0.003008
     118      11.911881       0.000958
     119      12.659716       0.000000
     120      12.896733       0.000000
     121      13.243595       0.000000
     122      13.432274       0.000000
     123      14.363846       0.000000
     124      14.375108       0.000000
     125      14.462937       0.000000
     126      14.464798       0.000000
     127      15.755806       0.000000
     128      15.764526       0.000000
     129      15.828231       0.000000
     130      15.891565       0.000000



 --------------------------------------------
 !FINAL_ETOT_IS -37648.1320393569621956 eV
 --------------------------------------------






  |CLASS_NAME---------|NAME---------------|TIME(Sec)-----|CALLS----|AVG------|PER%-------
                                      total     1139.07951        17     67.00    100.00%
                 Run_pw     plane_wave_line     1139.06724         1   1139.07    100.00%
                Cell_PW        opt_cells_pw     1138.94389         1   1138.94     99.99%
                    FFT               FFT3D      276.54141   1577128      0.00     24.28%
              Potential            v_of_rho        0.31377        40      0.01      0.03%
                H_XC_pw                v_xc        0.28625        40      0.01      0.03%
               wavefunc             wfcinit        9.04142         1      9.04      0.79%
            pp_cell_vnl              getvnl        1.19299      1271      0.00      0.10%
                 WF_igk              get_sk        0.28658     26040      0.00      0.03%
              Hamilt_PW      diagH_subspace       86.83041      1219      0.07      7.62%
              Hamilt_PW               h_psi      767.54348    561862      0.00     67.38%
              Hamilt_PW                vloc      324.11761    561862      0.00     28.45%
              Hamilt_PW                 vnl      439.47890    561862      0.00     38.58%
              Hamilt_PW     add_nonlocal_pp      137.69158    561862      0.00     12.09%
              Hamilt_PW                meta        0.14351    561862      0.00      0.01%
                 Hamilt        diagH_LAPACK        7.81203      1219      0.01      0.69%
                   Ions         opt_ions_pw     1129.78917         1   1129.79     99.18%
              Electrons     self_consistent     1129.78914         1   1129.79     99.18%
               Symmetry        rho_symmetry        0.32358        41      0.01      0.03%
              Electrons             c_bands     1056.39290        40     26.41     92.74%
                 Hamilt            diagH_pw     1054.99463      1240      0.85     92.62%
               Diago_CG                diag      970.32949      1250      0.78     85.19%
                 Charge            sum_band       69.11731        40      1.73      6.07%
                 Charge             rho_mpi        0.29259        40      0.01      0.03%
                 Charge             mix_rho        0.12285        40      0.00      0.01%
 ----------------------------------------------------------------------------------------

 CLASS_NAME---------|NAME---------------|MEMORY(MB)--------
                                         42.9659
             wavefunc                 evc        38.9865
 ----------------------------------------------------------

 Start  Time  : Tue Mar 29 19:49:53 2022
 Finish Time  : Tue Mar 29 20:08:55 2022
 Total  Time  : 0 h 19 mins 2 secs 
