                                                                                     
                             WELCOME TO ABACUS v3.0                                  
                                                                                     
               'Atomic-orbital Based Ab-initio Computation at UStc'                  
                                                                                     
                     Website: http://abacus.ustc.edu.cn/                             
                                                                                     
    Version: Parallel, in development
    Processor Number is 1
    Start Time is Mon May 15 13:19:48 2023
                                                                                     
 ------------------------------------------------------------------------------------

 READING GENERAL INFORMATION
                           global_out_dir = OUT.oftest/
                           global_in_card = INPUT
                               pseudo_dir = 
                              orbital_dir = 
                                    DRANK = 1
                                    DSIZE = 1
                                   DCOLOR = 1
                                    GRANK = 1
                                    GSIZE = 1
 The esolver type has been set to : ofdft




 >>>>>>>>>>>>>>>>>>>>>>>>>>>>>>>>>>>>>>>>>>>>>>>>>>>>>>>>>>>>>>>>>>>>>>
 |                                                                    |
 | Reading atom information in unitcell:                              |
 | From the input file and the structure file we know the number of   |
 | different elments in this unitcell, then we list the detail        |
 | information for each element, especially the zeta and polar atomic |
 | orbital number for each element. The total atom number is counted. |
 | We calculate the nearest atom distance for each atom and show the  |
 | Cartesian and Direct coordinates for each atom. We list the file   |
 | address for atomic orbitals. The volume and the lattice vectors    |
 | in real and reciprocal space is also shown.                        |
 |                                                                    |
 <<<<<<<<<<<<<<<<<<<<<<<<<<<<<<<<<<<<<<<<<<<<<<<<<<<<<<<<<<<<<<<<<<<<<<




 READING UNITCELL INFORMATION
                                    ntype = 2
                 atom label for species 1 = Mg
                 atom label for species 2 = Al
                  lattice constant (Bohr) = 1.88973
              lattice constant (Angstrom) = 1

 READING ATOM TYPE 1
                               atom label = Mg
                      L=0, number of zeta = 1
                      L=1, number of zeta = 1
                      L=2, number of zeta = 1
             number of atom for this type = 2
                      start magnetization = FALSE
                      start magnetization = FALSE

 READING ATOM TYPE 2
                               atom label = Al
                      L=0, number of zeta = 1
                      L=1, number of zeta = 1
                      L=2, number of zeta = 1
             number of atom for this type = 6
                      start magnetization = FALSE
                      start magnetization = FALSE
                      start magnetization = FALSE
                      start magnetization = FALSE
                      start magnetization = FALSE
                      start magnetization = FALSE

                        TOTAL ATOM NUMBER = 8

 DIRECT COORDINATES
         atom                   x                   y                   z                 mag                  vx                  vy                  vz
     taud_Mg1                   0                   0                   0                   0                   0                   0                   0
     taud_Mg2                 0.5                 0.5                 0.5                   0                   0                   0                   0
     taud_Al1                 0.5                 0.5                   0                   0                   0                   0                   0
     taud_Al2                 0.5                   0                0.25                   0                   0                   0                   0
     taud_Al3                   0                 0.5                0.25                   0                   0                   0                   0
     taud_Al4                   0                   0                 0.5                   0                   0                   0                   0
     taud_Al5                   0                 0.5                0.75                   0                   0                   0                   0
     taud_Al6                 0.5                   0                0.75                   0                   0                   0                   0


                          Volume (Bohr^3) = 930.703
                             Volume (A^3) = 137.916

 Lattice vectors: (Cartesian coordinate: in unit of a_0)
             +4.09094                  +0                  +0
                   +0            +4.09094                  +0
                   +0                  +0            +8.24077
 Reciprocal vectors: (Cartesian coordinate: in unit of 2 pi/a_0)
            +0.244442                  -0                  +0
                   -0           +0.244442                  -0
                   +0                  -0           +0.121348




 >>>>>>>>>>>>>>>>>>>>>>>>>>>>>>>>>>>>>>>>>>>>>>>>>>>>>>>>>>>>>>>>>>>>>>
 |                                                                    |
 | Reading pseudopotentials files:                                    |
 | The pseudopotential file is in UPF format. The 'NC' indicates that |
 | the type of pseudopotential is 'norm conserving'. Functional of    |
 | exchange and correlation is decided by 4 given parameters in UPF   |
 | file.  We also read in the 'core correction' if there exists.      |
 | Also we can read the valence electrons number and the maximal      |
 | angular momentum used in this pseudopotential. We also read in the |
 | trail wave function, trail atomic density and local-pseudopotential|
 | on logrithmic grid. The non-local pseudopotential projector is also|
 | read in if there is any.                                           |
 |                                                                    |
 <<<<<<<<<<<<<<<<<<<<<<<<<<<<<<<<<<<<<<<<<<<<<<<<<<<<<<<<<<<<<<<<<<<<<<




                PAO radial cut off (Bohr) = 16

 Read in pseudopotential file is mg.gga.psp
                     pseudopotential type = 
          exchange-correlation functional = XC_GGA_X_PBE+XC_GGA_C_PBE
                 nonlocal core correction = 0
                        valence electrons = 2
                                     lmax = 0
                           number of zeta = 0
                     number of projectors = 0
                PAO radial cut off (Bohr) = 16

 Read in pseudopotential file is al.gga.psp
                     pseudopotential type = 
          exchange-correlation functional = XC_GGA_X_PBE+XC_GGA_C_PBE
                 nonlocal core correction = 0
                        valence electrons = 3
                                     lmax = 0
                           number of zeta = 0
                     number of projectors = 0
Notice: symbol 'mg_locpsp' is not an element symbol!!!! set the covalent radius to be 0.
Notice: symbol 'al_locpsp' is not an element symbol!!!! set the covalent radius to be 0.
     initial pseudo atomic orbital number = 0
                                   NLOCAL = 72




 >>>>>>>>>>>>>>>>>>>>>>>>>>>>>>>>>>>>>>>>>>>>>>>>>>>>>>>>>>>>>>>>>>>>>>
 |                                                                    |
 | Setup plane waves of charge/potential:                             |
 | Use the energy cutoff and the lattice vectors to generate the      |
 | dimensions of FFT grid. The number of FFT grid on each processor   |
 | is 'nrxx'. The number of plane wave basis in reciprocal space is   |
 | different for charege/potential and wave functions. We also set    |
 | the 'sticks' for the parallel of FFT. The number of plane waves    |
 | is 'npw' in each processor.                                        |
 <<<<<<<<<<<<<<<<<<<<<<<<<<<<<<<<<<<<<<<<<<<<<<<<<<<<<<<<<<<<<<<<<<<<<<





 SETUP THE PLANE WAVE BASIS
 energy cutoff for charge/potential (unit:Ry) = 235.196
          [fft grid for charge/potential] = 40, 40, 80
                      [fft grid division] = 1, 1, 1
      [big fft grid for charge/potential] = 40, 40, 80
                                     nbxx = 128000
                                     nrxx = 128000

 SETUP PLANE WAVES FOR CHARGE/POTENTIAL
                    number of plane waves = 128000
                         number of sticks = 1600

 PARALLEL PW FOR CHARGE/POTENTIAL
     PROC   COLUMNS(POT)             PW
        1           1600         128000
 --------------- sum -------------------
        1           1600         128000
                            number of |g| = 8118
                                  max |g| = 71.3622
                                  min |g| = 0

 SETUP THE ELECTRONS NUMBER
            electron number of element Mg = 2
      total electron number of element Mg = 4
            electron number of element Al = 3
      total electron number of element Al = 18
            AUTOSET number of electrons:  = 22
 DONE : SETUP UNITCELL Time : 1.14668 (SEC)





 >>>>>>>>>>>>>>>>>>>>>>>>>>>>>>>>>>>>>>>>>>>>>>>>>>>>>>>>>>>>>>>>>>>>>>
 |                                                                    |
 | Doing symmetry analysis:                                           |
 | We calculate the norm of 3 vectors and the angles between them,    |
 | the type of Bravais lattice is given. We can judge if the unticell |
 | is a primitive cell. Finally we give the point group operation for |
 | this unitcell. We we use the point group operations to do symmetry |
 | analysis on given k-point mesh and the charge density.             |
 |                                                                    |
 <<<<<<<<<<<<<<<<<<<<<<<<<<<<<<<<<<<<<<<<<<<<<<<<<<<<<<<<<<<<<<<<<<<<<<




 LATTICE VECTORS: (CARTESIAN COORDINATE: IN UNIT OF A0)
             +4.09094                  +0                  +0
                   +0            +4.09094                  +0
                   +0                  +0            +8.24077
                       right hand lattice = 1
                                   NORM_A = 4.09094
                                   NORM_B = 4.09094
                                   NORM_C = 8.24077
                           ALPHA (DEGREE) = 90
                           BETA  (DEGREE) = 90
                           GAMMA (DEGREE) = 90
                             BRAVAIS TYPE = 5
                     BRAVAIS LATTICE NAME = 05. Tetrogonal P (simple)
                                    IBRAV = 5
                                  BRAVAIS = SIMPLE TETROGONAL CELL
                       LATTICE CONSTANT A = 4.09094
                                C/A RATIO = 2.01439
                                    ibrav = 5
                        ROTATION MATRICES = 16
              PURE POINT GROUP OPERATIONS = 16
                   SPACE GROUP OPERATIONS = 16
                              POINT GROUP = D_4h
Warning : If the optimal symmetric configuration is not the input configuration, 
you have to manually change configurations, ABACUS would only calculate the input structure.
 DONE : SYMMETRY Time : 1.2468 (SEC)





 >>>>>>>>>>>>>>>>>>>>>>>>>>>>>>>>>>>>>>>>>>>>>>>>>>>>>>>>>>>>>>>>>>>>>>
 |                                                                    |
 | Setup K-points                                                     |
 | We setup the k-points according to input parameters.               |
 | The reduced k-points are set according to symmetry operations.     |
 | We treat the spin as another set of k-points.                      |
 |                                                                    |
 <<<<<<<<<<<<<<<<<<<<<<<<<<<<<<<<<<<<<<<<<<<<<<<<<<<<<<<<<<<<<<<<<<<<<<





 SETUP K-POINTS
                                    nspin = 1
                   Input type of k points = Monkhorst-Pack(Gamma)
                                   nkstot = 1
                               nkstot_ibz = 1
      IBZ             DirectX             DirectY             DirectZ              Weight    ibz2bz
        1                   0                   0                   0                   1         0
                               nkstot now = 1

  KPOINTS            DIRECT_X            DIRECT_Y            DIRECT_Z              WEIGHT
        1                   0                   0                   0                   1

           k-point number in this process = 1
       minimum distributed K point number = 1

  KPOINTS         CARTESIAN_X         CARTESIAN_Y         CARTESIAN_Z              WEIGHT
        1                   0                   0                   0                   2

  KPOINTS            DIRECT_X            DIRECT_Y            DIRECT_Z              WEIGHT
        1                   0                   0                   0                   2
 DONE : INIT K-POINTS Time : 1.24828 (SEC)

 DONE : INIT BASIS Time : 2.07834 (SEC)

 DONE : INIT PHI Time : 2.07861 (SEC)


 SETUP NONLOCAL PSEUDOPOTENTIALS IN PLANE WAVE BASIS
 Mg non-local projectors:
 Al non-local projectors:
      TOTAL NUMBER OF NONLOCAL PROJECTORS = 0

 nhm = 0, not allocate some matrix. DONE : LOCAL POTENTIAL Time : 3.57217 (SEC)


 Init Non-Local PseudoPotential table : 
 Init Non-Local-Pseudopotential done.
 DONE : NON-LOCAL POTENTIAL Time : 3.57269 (SEC)

Successful completion of Potential's registration : local
Successful completion of Potential's registration : hartree
Successful completion of Potential's registration : xc
                                 init_chg = atomic
 DONE : INIT POTENTIAL Time : 5.78218 (SEC)

 DONE : INIT OPTIMIZATION Time : 5.78419 (SEC)

 DONE : INIT KEDF Time : 5.7955 (SEC)


 charge density convergence is achieved
 final etot is -391.214 eV



 ><><><><><><><><><><><><><><><><><><><><><><

    TOTAL-FORCE (eV/Angstrom)

 ><><><><><><><><><><><><><><><><><><><><><><

     atom              x              y              z
      Mg1              0              0              0
      Mg2              0              0              0
      Al1              0              0              0
      Al2              0              0              0
      Al3              0              0              0
      Al4              0              0              0
      Al5              0              0              0
      Al6              0              0              0


 ><><><><><><><><><><><><><><><><><><><><><><

 TOTAL-STRESS (KBAR)

 ><><><><><><><><><><><><><><><><><><><><><><

      -19.124277      +0.000000      +0.000000
       +0.000000     -19.124277      +0.000000
       +0.000000      +0.000000     -21.521565
 TOTAL-PRESSURE: -19.923373 KBAR


 --------------------------------------------
 !FINAL_ETOT_IS -391.2141587072528637 eV
 --------------------------------------------






  |CLASS_NAME---------|NAME---------------|TIME(Sec)-----|CALLS----|AVG------|PER%-------
                                      total     +202.45266        21     +9.64   +100.00%
                 Driver         driver_line     +202.37941         1   +202.38    +99.96%
               PW_Basis      setuptransform       +0.95552         1     +0.96     +0.47%
               PW_Basis  setup_struc_factor       +0.82956         1     +0.83     +0.41%
              ppcell_vl           init_vloc       +1.49300         1     +1.49     +0.74%
                 Charge          atomic_rho       +1.61073         1     +1.61     +0.80%
               PW_Basis          recip2real      +55.26075      2321     +0.02    +27.30%
               PW_Basis    gathers_scatterp       +9.47734      2321     +0.00     +4.68%
              Potential            init_pot       +0.57643         1     +0.58     +0.28%
              Potential  update_from_charge     +111.45187       178     +0.63    +55.05%
              Potential           cal_v_eff     +111.41857       178     +0.63    +55.03%
           H_Hartree_pw           v_hartree      +10.81364       178     +0.06     +5.34%
               PW_Basis          real2recip      +51.05780      2316     +0.02    +25.22%
               PW_Basis    gatherp_scatters       +6.60932      2316     +0.00     +3.26%
                  PotXC           cal_v_eff      +99.89817       178     +0.56    +49.34%
          XC_Functional                v_xc      +95.17275        89     +1.07    +47.01%
          XC_Functional          v_xc_libxc      +98.81006       178     +0.56    +48.81%
             ESolver_OF                 Run     +189.06257         1   +189.06    +93.39%
               KEDF_LKT       LKT_potential      +62.29232       177     +0.35    +30.77%
                KEDF_vW        vw_potential      +10.42772       177     +0.06     +5.15%
                 Forces       cal_force_loc       +0.84946         1     +0.85     +0.42%
                 Forces        cal_force_ew       +0.87194         1     +0.87     +0.43%
           OF_Stress_PW          cal_stress       +5.27261         1     +5.27     +2.60%
            Stress_Func          stress_ewa       +0.92590         1     +0.93     +0.46%
            Stress_Func          stress_gga       +0.63780         1     +0.64     +0.32%
            Stress_Func          stress_loc       +3.67658         1     +3.68     +1.82%
 ----------------------------------------------------------------------------------------

 CLASS_NAME---------|NAME---------------|MEMORY(MB)--------
                                         +13.7112
             PW_Basis           struc_fac        +3.9062
 ----------------------------------------------------------

 Start  Time  : Mon May 15 13:19:48 2023
 Finish Time  : Mon May 15 13:23:10 2023
 Total  Time  : 0 h 3 mins 22 secs 
