                                                                                     
                             WELCOME TO ABACUS                                       
                                                                                     
               'Atomic-orbital Based Ab-initio Computation at UStc'                  
                                                                                     
                     Website: http://abacus.ustc.edu.cn/                             
                                                                                     
    Version: Parallel, in development
    Processor Number is 16
    Start Time is Thu Jan 20 19:48:23 2022
                                                                                     
 ------------------------------------------------------------------------------------

 READING GENERAL INFORMATION
                           global_out_dir = OUT.stack/
                           global_in_card = INPUT
                               pseudo_dir = 
                              orbital_dir = 
                              pseudo_type = blps
                                    DRANK = 1
                                    DSIZE = 16
                                   DCOLOR = 1
                                    GRANK = 1
                                    GSIZE = 1




 >>>>>>>>>>>>>>>>>>>>>>>>>>>>>>>>>>>>>>>>>>>>>>>>>>>>>>>>>>>>>>>>>>>>>>
 |                                                                    |
 | Reading atom information in unitcell:                              |
 | From the input file and the structure file we know the number of   |
 | different elments in this unitcell, then we list the detail        |
 | information for each element, especially the zeta and polar atomic |
 | orbital number for each element. The total atom number is counted. |
 | We calculate the nearest atom distance for each atom and show the  |
 | Cartesian and Direct coordinates for each atom. We list the file   |
 | address for atomic orbitals. The volume and the lattice vectors    |
 | in real and reciprocal space is also shown.                        |
 |                                                                    |
 <<<<<<<<<<<<<<<<<<<<<<<<<<<<<<<<<<<<<<<<<<<<<<<<<<<<<<<<<<<<<<<<<<<<<<




 READING UNITCELL INFORMATION
                                    ntype = 1
                 atom label for species 1 = Al
                  lattice constant (Bohr) = 7.50241
              lattice constant (Angstrom) = 3.9701

 READING ATOM TYPE 1
                               atom label = Al
                      L=0, number of zeta = 1
                      L=1, number of zeta = 1
                      L=2, number of zeta = 1
             number of atom for this type = 21
                      start magnetization = FALSE
                      start magnetization = FALSE
                      start magnetization = FALSE
                      start magnetization = FALSE
                      start magnetization = FALSE
                      start magnetization = FALSE
                      start magnetization = FALSE
                      start magnetization = FALSE
                      start magnetization = FALSE
                      start magnetization = FALSE
                      start magnetization = FALSE
                      start magnetization = FALSE
                      start magnetization = FALSE
                      start magnetization = FALSE
                      start magnetization = FALSE
                      start magnetization = FALSE
                      start magnetization = FALSE
                      start magnetization = FALSE
                      start magnetization = FALSE
                      start magnetization = FALSE
                      start magnetization = FALSE

                        TOTAL ATOM NUMBER = 21

 DIRECT COORDINATES
         atom                   x                   y                   z                 mag                  vx                  vy                  vz
     taud_Al1                   0                   0                   0                   0                   0                   0                   0
     taud_Al2            0.333333            0.333333            0.047619                   0                   0                   0                   0
     taud_Al3            0.666667            0.666667           0.0952381                   0                   0                   0                   0
     taud_Al4                   0                   0            0.142857                   0                   0                   0                   0
     taud_Al5            0.333333            0.333333            0.190476                   0                   0                   0                   0
     taud_Al6            0.666667            0.666667            0.238095                   0                   0                   0                   0
     taud_Al7                   0                   0            0.285714                   0                   0                   0                   0
     taud_Al8            0.333333            0.333333            0.333333                   0                   0                   0                   0
     taud_Al9            0.666667            0.666667            0.380952                   0                   0                   0                   0
    taud_Al10                   0                   0            0.428571                   0                   0                   0                   0
    taud_Al11            0.333333            0.333333             0.47619                   0                   0                   0                   0
    taud_Al12            0.666667            0.666667             0.52381                   0                   0                   0                   0
    taud_Al13                   0                   0            0.571429                   0                   0                   0                   0
    taud_Al14            0.333333            0.333333            0.619048                   0                   0                   0                   0
    taud_Al15            0.666667            0.666667            0.666667                   0                   0                   0                   0
    taud_Al16                   0                   0            0.714286                   0                   0                   0                   0
    taud_Al17            0.333333            0.333333            0.761905                   0                   0                   0                   0
    taud_Al18            0.666667            0.666667            0.809524                   0                   0                   0                   0
    taud_Al19                   0                   0            0.857143                   0                   0                   0                   0
    taud_Al20            0.333333            0.333333            0.904762                   0                   0                   0                   0
    taud_Al21            0.666667            0.666667            0.952381                   0                   0                   0                   0


                          Volume (Bohr^3) = 2216.98
                             Volume (A^3) = 328.522

 Lattice vectors: (Cartesian coordinate: in unit of a_0)
            +0.707107                  +0                  +0
            +0.353553           +0.612372                  +0
                   +0                  +0            +12.1244
 Reciprocal vectors: (Cartesian coordinate: in unit of 2 pi/a_0)
             +1.41421           -0.816497                  +0
                   +0            +1.63299                  -0
                   +0                  -0          +0.0824786




 >>>>>>>>>>>>>>>>>>>>>>>>>>>>>>>>>>>>>>>>>>>>>>>>>>>>>>>>>>>>>>>>>>>>>>
 |                                                                    |
 | Reading pseudopotentials files:                                    |
 | The pseudopotential file is in UPF format. The 'NC' indicates that |
 | the type of pseudopotential is 'norm conserving'. Functional of    |
 | exchange and correlation is decided by 4 given parameters in UPF   |
 | file.  We also read in the 'core correction' if there exists.      |
 | Also we can read the valence electrons number and the maximal      |
 | angular momentum used in this pseudopotential. We also read in the |
 | trail wave function, trail atomic density and local-pseudopotential|
 | on logrithmic grid. The non-local pseudopotential projector is also|
 | read in if there is any.                                           |
 |                                                                    |
 <<<<<<<<<<<<<<<<<<<<<<<<<<<<<<<<<<<<<<<<<<<<<<<<<<<<<<<<<<<<<<<<<<<<<<




                PAO radial cut off (Bohr) = 16

 Read in pseudopotential file is al.lda.lps
                     pseudopotential type = 
                            functional Ex = LDA
                            functional Ec = LDA
                          functional GCEx = NOGX
                          functional GCEc = NOGC
                 nonlocal core correction = 0
                        valence electrons = 3
                                     lmax = 0
                           number of zeta = 0
                     number of projectors = 0
     initial pseudo atomic orbital number = 0
                                   NLOCAL = 189

 SETUP THE ELECTRONS NUMBER
            electron number of element Al = 3
      total electron number of element Al = 63
                           occupied bands = 32
                                   NBANDS = 120
 DONE : SETUP UNITCELL Time : 0.0108693 (SEC)





 >>>>>>>>>>>>>>>>>>>>>>>>>>>>>>>>>>>>>>>>>>>>>>>>>>>>>>>>>>>>>>>>>>>>>>
 |                                                                    |
 | Doing symmetry analysis:                                           |
 | We calculate the norm of 3 vectors and the angles between them,    |
 | the type of Bravais lattice is given. We can judge if the unticell |
 | is a primitive cell. Finally we give the point group operation for |
 | this unitcell. We we use the point group operations to do symmetry |
 | analysis on given k-point mesh and the charge density.             |
 |                                                                    |
 <<<<<<<<<<<<<<<<<<<<<<<<<<<<<<<<<<<<<<<<<<<<<<<<<<<<<<<<<<<<<<<<<<<<<<




 LATTICE VECTORS: (CARTESIAN COORDINATE: IN UNIT OF A0)
            +0.707107                  +0                  +0
            +0.353553           +0.612372                  +0
                   +0                  +0            +12.1244
                       right hand lattice = 1
                                   NORM_A = 0.707107
                                   NORM_B = 0.707107
                                   NORM_C = 12.1244
                           ALPHA (DEGREE) = 60
                           BETA  (DEGREE) = 90
                           GAMMA (DEGREE) = 90
                             BRAVAIS TYPE = 4
                     BRAVAIS LATTICE NAME = 04. Hexagonal cell
 STANDARD LATTICE VECTORS: (CARTESIAN COORDINATE: IN UNIT OF A0)
            +0.707107                  +0                  +0
            +0.353553           +0.612372                  +0
                   +0                  +0            +12.1244
                                    IBRAV = 4
                                  BRAVAIS = HEXAGONAL CELL
                       LATTICE CONSTANT A = 36.4623
                                C/A RATIO = 0.667011
                                    ibrav = 4
                        ROTATION MATRICES = 24
              PURE POINT GROUP OPERATIONS = 4
                   SPACE GROUP OPERATIONS = 4
                                       C2 = 1
                                       C3 = 0
                                       C4 = 0
                                       C6 = 0
                                       S1 = 1
                                       S3 = 0
                                       S4 = 0
                                       S6 = 0
                              POINT GROUP = C_2h
 DONE : SYMMETRY Time : 0.0492877 (SEC)





 >>>>>>>>>>>>>>>>>>>>>>>>>>>>>>>>>>>>>>>>>>>>>>>>>>>>>>>>>>>>>>>>>>>>>>
 |                                                                    |
 | Setup K-points                                                     |
 | We setup the k-points according to input parameters.               |
 | The reduced k-points are set according to symmetry operations.     |
 | We treat the spin as another set of k-points.                      |
 |                                                                    |
 <<<<<<<<<<<<<<<<<<<<<<<<<<<<<<<<<<<<<<<<<<<<<<<<<<<<<<<<<<<<<<<<<<<<<<





 SETUP K-POINTS
                                    nspin = 1
                   Input type of k points = Monkhorst-Pack(Gamma)
                                   nkstot = 100
                               nkstot_ibz = 31
      IBZ             DirectX             DirectY             DirectZ              Weight    ibz2bz
        1                   0                   0                   0                0.01         0
        2                 0.9                   0                   0                0.04         1
        3                 0.8                   0                   0                0.04         2
        4                 0.7                   0                   0                0.04         3
        5                 0.6                   0                   0                0.04         4
        6                   0                 0.5                   0                0.02         5
        7                 0.9                 0.9                   0                0.02        11
        8                 0.9                 0.8                   0                0.04        12
        9                 0.9                 0.7                   0                0.04        13
       10                 0.9                 0.6                   0                0.04        14
       11                 0.9                 0.5                   0                0.04        15
       12                 0.9                 0.4                   0                0.04        16
       13                 0.9                 0.3                   0                0.04        17
       14                 0.9                 0.2                   0                0.04        18
       15                 0.1                 0.9                   0                0.02        19
       16                 0.8                 0.8                   0                0.02        22
       17                 0.8                 0.7                   0                0.04        23
       18                 0.8                 0.6                   0                0.04        24
       19                 0.8                 0.5                   0                0.04        25
       20                 0.8                 0.4                   0                0.04        26
       21                 0.8                 0.3                   0                0.04        27
       22                 0.2                 0.8                   0                0.02        28
       23                 0.7                 0.7                   0                0.02        33
       24                 0.7                 0.6                   0                0.04        34
       25                 0.7                 0.5                   0                0.04        35
       26                 0.7                 0.4                   0                0.04        36
       27                 0.3                 0.7                   0                0.02        37
       28                 0.6                 0.6                   0                0.02        44
       29                 0.6                 0.5                   0                0.04        45
       30                 0.4                 0.6                   0                0.02        46
       31                 0.5                 0.5                   0                0.01        55
                               nkstot now = 31

  KPOINTS            DIRECT_X            DIRECT_Y            DIRECT_Z              WEIGHT
        1                   0                   0                   0                0.01
        2                 0.9                   0                   0                0.04
        3                 0.8                   0                   0                0.04
        4                 0.7                   0                   0                0.04
        5                 0.6                   0                   0                0.04
        6                   0                 0.5                   0                0.02
        7                 0.9                 0.9                   0                0.02
        8                 0.9                 0.8                   0                0.04
        9                 0.9                 0.7                   0                0.04
       10                 0.9                 0.6                   0                0.04
       11                 0.9                 0.5                   0                0.04
       12                 0.9                 0.4                   0                0.04
       13                 0.9                 0.3                   0                0.04
       14                 0.9                 0.2                   0                0.04
       15                 0.1                 0.9                   0                0.02
       16                 0.8                 0.8                   0                0.02
       17                 0.8                 0.7                   0                0.04
       18                 0.8                 0.6                   0                0.04
       19                 0.8                 0.5                   0                0.04
       20                 0.8                 0.4                   0                0.04
       21                 0.8                 0.3                   0                0.04
       22                 0.2                 0.8                   0                0.02
       23                 0.7                 0.7                   0                0.02
       24                 0.7                 0.6                   0                0.04
       25                 0.7                 0.5                   0                0.04
       26                 0.7                 0.4                   0                0.04
       27                 0.3                 0.7                   0                0.02
       28                 0.6                 0.6                   0                0.02
       29                 0.6                 0.5                   0                0.04
       30                 0.4                 0.6                   0                0.02
       31                 0.5                 0.5                   0                0.01

           k-point number in this process = 31
       minimum distributed K point number = 31

  KPOINTS         CARTESIAN_X         CARTESIAN_Y         CARTESIAN_Z              WEIGHT
        1                   0                   0                   0                0.02
        2             1.27279           -0.734847                   0                0.08
        3             1.13137           -0.653197                   0                0.08
        4            0.989949           -0.571548                   0                0.08
        5            0.848528           -0.489898                   0                0.08
        6                   0            0.816497                   0                0.04
        7             1.27279            0.734847                   0                0.04
        8             1.27279            0.571548                   0                0.08
        9             1.27279            0.408248                   0                0.08
       10             1.27279            0.244949                   0                0.08
       11             1.27279           0.0816497                   0                0.08
       12             1.27279          -0.0816497                   0                0.08
       13             1.27279           -0.244949                   0                0.08
       14             1.27279           -0.408248                   0                0.08
       15            0.141421             1.38804                   0                0.04
       16             1.13137            0.653197                   0                0.04
       17             1.13137            0.489898                   0                0.08
       18             1.13137            0.326599                   0                0.08
       19             1.13137            0.163299                   0                0.08
       20             1.13137                   0                   0                0.08
       21             1.13137           -0.163299                   0                0.08
       22            0.282843              1.1431                   0                0.04
       23            0.989949            0.571548                   0                0.04
       24            0.989949            0.408248                   0                0.08
       25            0.989949            0.244949                   0                0.08
       26            0.989949           0.0816497                   0                0.08
       27            0.424264            0.898146                   0                0.04
       28            0.848528            0.489898                   0                0.04
       29            0.848528            0.326599                   0                0.08
       30            0.565685            0.653197                   0                0.04
       31            0.707107            0.408248                   0                0.02

  KPOINTS            DIRECT_X            DIRECT_Y            DIRECT_Z              WEIGHT
        1                   0                   0                   0                0.02
        2                 0.9                   0                   0                0.08
        3                 0.8                   0                   0                0.08
        4                 0.7                   0                   0                0.08
        5                 0.6                   0                   0                0.08
        6                   0                 0.5                   0                0.04
        7                 0.9                 0.9                   0                0.04
        8                 0.9                 0.8                   0                0.08
        9                 0.9                 0.7                   0                0.08
       10                 0.9                 0.6                   0                0.08
       11                 0.9                 0.5                   0                0.08
       12                 0.9                 0.4                   0                0.08
       13                 0.9                 0.3                   0                0.08
       14                 0.9                 0.2                   0                0.08
       15                 0.1                 0.9                   0                0.04
       16                 0.8                 0.8                   0                0.04
       17                 0.8                 0.7                   0                0.08
       18                 0.8                 0.6                   0                0.08
       19                 0.8                 0.5                   0                0.08
       20                 0.8                 0.4                   0                0.08
       21                 0.8                 0.3                   0                0.08
       22                 0.2                 0.8                   0                0.04
       23                 0.7                 0.7                   0                0.04
       24                 0.7                 0.6                   0                0.08
       25                 0.7                 0.5                   0                0.08
       26                 0.7                 0.4                   0                0.08
       27                 0.3                 0.7                   0                0.04
       28                 0.6                 0.6                   0                0.04
       29                 0.6                 0.5                   0                0.08
       30                 0.4                 0.6                   0                0.04
       31                 0.5                 0.5                   0                0.02
 DONE : INIT K-POINTS Time : 0.0706423 (SEC)





 >>>>>>>>>>>>>>>>>>>>>>>>>>>>>>>>>>>>>>>>>>>>>>>>>>>>>>>>>>>>>>>>>>>>>>
 |                                                                    |
 | Setup plane waves:                                                 |
 | Use the energy cutoff and the lattice vectors to generate the      |
 | dimensions of FFT grid. The number of FFT grid on each processor   |
 | is 'nrxx'. The number of plane wave basis in reciprocal space is   |
 | different for charege/potential and wave functions. We also set    |
 | the 'sticks' for the parallel of FFT.                              |
 |                                                                    |
 <<<<<<<<<<<<<<<<<<<<<<<<<<<<<<<<<<<<<<<<<<<<<<<<<<<<<<<<<<<<<<<<<<<<<<





 SETUP THE PLANE WAVE BASIS
     energy cutoff for wavefunc (unit:Ry) = 40
            [fft grid for wave functions] = 24, 24, 375
          [fft grid for charge/potential] = 24, 24, 375
                      [fft grid division] = 1, 1, 1
      [big fft grid for charge/potential] = 24, 24, 375
                                     nbxx = 13824
                                     nrxx = 13824

 SETUP PLANE WAVES FOR CHARGE/POTENTIAL
                    number of plane waves = 76123
                         number of sticks = 313

 SETUP PLANE WAVES FOR WAVE FUNCTIONS
                    number of plane waves = 16155
                         number of sticks = 109

 PARALLEL PW FOR CHARGE/POTENTIAL
     PROC   COLUMNS(POT)             PW
        1             20           4754
        2             19           4739
        3             20           4784
        4             19           4739
        5             20           4752
        6             20           4752
        7             20           4786
        8             20           4786
        9             20           4786
       10             19           4737
       11             19           4739
       12             19           4737
       13             19           4739
       14             20           4774
       15             20           4782
       16             19           4737
 --------------- sum -------------------
       16            313          76123

 PARALLEL PW FOR WAVE FUNCTIONS
     PROC     COLUMNS(W)             PW
        1              6            984
        2              7           1003
        3              7           1017
        4              7           1017
        5              7           1017
        6              7           1017
        7              7           1017
        8              7           1007
        9              7           1007
       10              7           1039
       11              7           1039
       12              6            976
       13              6            982
       14              7           1019
       15              7           1013
       16              7           1001
 --------------- sum -------------------
       16            109          16155

 SETUP COORDINATES OF PLANE WAVES
              number of total plane waves = 76123

 SETUP COORDINATES OF PLANE WAVES
                            number of |g| = 1747
                                  max |g| = 228.109
                                  min |g| = 0
 DONE : INIT PLANEWAVE Time : 0.11519 (SEC)

                                     npwx = 764

 SETUP NONLOCAL PSEUDOPOTENTIALS IN PLANE WAVE BASIS
 Al non-local projectors:
      TOTAL NUMBER OF NONLOCAL PROJECTORS = 0

 nhm = 0, not allocate some matrix. DONE : LOCAL POTENTIAL Time : 0.186257 (SEC)


 Init Non-Local PseudoPotential table : 
 Init Non-Local-Pseudopotential done.
 DONE : NON-LOCAL POTENTIAL Time : 0.186421 (SEC)

                                start_pot = atomic
 DONE : INIT POTENTIAL Time : 0.3158 (SEC)


 Make real space PAO into reciprocal space.
       max mesh points in Pseudopotential = 1601
     dq(describe PAO in reciprocal space) = 0.01
                                    max q = 764

 number of pseudo atomic orbitals for Al is 0
 DONE : INIT BASIS Time : 8.6183 (SEC)


 -------------------------------------------
 RELAX CELL : 1
 RELAX IONS : 1 (in total: 1)
 -------------------------------------------

 PW ALGORITHM --------------- ION=   1  ELEC=   1--------------------------------
  K-point    CG iter num      Time(Sec)
        1       8.500000       0.644724
        2       8.850000       0.607535
        3       9.041667       0.616251
        4       8.975000       0.606187
        5       9.008333       0.531034
        6       8.850000       0.543895
        7       8.916667       0.551661
        8       8.550000       0.527213
        9       8.816667       0.535165
       10       8.925000       0.535314
       11       8.891667       0.532958
       12       9.075000       0.540461
       13       8.941667       0.535227
       14       8.925000       0.539359
       15       8.583333       0.534671
       16       8.816667       0.542989
       17       8.858333       0.541171
       18       8.641667       0.519887
       19       8.791667       0.526898
       20       8.783333       0.526014
       21       8.950000       0.533962
       22       8.900000       0.549519
       23       9.016667       0.545127
       24       8.983333       0.536995
       25       9.100000       0.540022
       26       8.750000       0.518973
       27       8.816667       0.542122
       28       8.850000       0.532271
       29       8.866667       0.528152
       30       8.808333       0.537421
       31       9.000000       0.540425

 Density error is 1.791524689535
                          Error Threshold = 0.010000000000

       Energy                       Rydberg                            eV
   E_KohnSham              -89.068324204893            -1211.836720497858
     E_Harris              -89.442806695968            -1216.931816177718
      E_Fermi               +0.623234007412               +8.479533688183

 PW ALGORITHM --------------- ION=   1  ELEC=   2--------------------------------
  K-point    CG iter num      Time(Sec)
        1       2.650000       0.285917
        2       2.516667       0.250941
        3       2.358333       0.219618
        4       2.208333       0.199765
        5       2.025000       0.156016
        6       2.066667       0.188623
        7       2.650000       0.246139
        8       2.450000       0.190612
        9       2.291667       0.216220
       10       2.250000       0.202895
       11       2.150000       0.167569
       12       2.141667       0.196772
       13       2.258333       0.213977
       14       2.416667       0.186782
       15       2.416667       0.222015
       16       2.266667       0.208943
       17       2.316667       0.180605
       18       2.300000       0.212620
       19       2.208333       0.202987
       20       2.116667       0.163340
       21       2.250000       0.202070
       22       2.316667       0.221177
       23       2.150000       0.167425
       24       2.208333       0.197798
       25       2.183333       0.212105
       26       2.358333       0.181336
       27       2.300000       0.203744
       28       2.166667       0.211458
       29       2.183333       0.168808
       30       2.100000       0.180957
       31       2.066667       0.213378

 Density error is 4.701297402765
                          Error Threshold = 0.002843689983

       Energy                       Rydberg                            eV
   E_KohnSham              -84.876568152659            -1154.804953561502
     E_Harris              -89.344612162725            -1215.595811013157
      E_Fermi               +0.609955209594               +8.298866375262

 PW ALGORITHM --------------- ION=   1  ELEC=   3--------------------------------
  K-point    CG iter num      Time(Sec)
        1      23.500000       1.666260
        2      24.825000       1.607697
        3      24.808333       1.628494
        4      25.541667       1.492574
        5      25.966667       1.502708
        6      25.683333       1.547904
        7      24.683333       1.458247
        8      24.825000       1.480382
        9      25.291667       1.483412
       10      26.075000       1.535599
       11      26.033333       1.548947
       12      25.891667       1.524267
       13      26.141667       1.538851
       14      25.191667       1.478981
       15      24.583333       1.482208
       16      25.425000       1.509900
       17      25.150000       1.490403
       18      25.891667       1.521769
       19      25.258333       1.483732
       20      25.450000       1.502807
       21      26.041667       1.568612
       22      26.400000       1.578905
       23      26.116667       1.549712
       24      25.983333       1.531679
       25      25.783333       1.511294
       26      25.583333       1.503992
       27      25.725000       1.558626
       28      26.233333       1.539441
       29      26.025000       1.526926
       30      25.658333       1.550396
       31      25.358333       1.518284

 Density error is 9509.743259037075
                          Error Threshold = 0.002843689983

       Energy                       Rydberg                            eV
   E_KohnSham             -187.815959603562            -2555.367225946266
     E_Harris             -405.065473366187            -5511.198500847379
      E_Fermi               -3.798281478878              -51.678270720611

 PW ALGORITHM --------------- ION=   1  ELEC=   4--------------------------------
  K-point    CG iter num      Time(Sec)
        1      10.116667       0.843338
        2      12.316667       0.852204
        3      14.283333       1.024795
        4      14.375000       0.976506
        5      14.691667       1.008280
        6      14.100000       1.023643
        7      12.358333       0.863373
        8      13.391667       0.988008
        9      14.966667       1.054435
       10      15.083333       1.048150
       11      15.041667       1.053280
       12      15.500000       1.016545
       13      14.925000       0.920960
       14      14.941667       0.921006
       15      13.525000       0.881812
       16      14.250000       0.909724
       17      14.666667       0.967028
       18      14.633333       0.904943
       19      15.608333       0.947368
       20      14.941667       0.915015
       21      15.625000       0.950556
       22      14.916667       0.951693
       23      14.608333       0.916710
       24      15.300000       0.944060
       25      15.208333       0.931855
       26      13.841667       0.857936
       27      14.008333       0.892502
       28      14.283333       0.896954
       29      15.116667       0.929563
       30      15.066667       0.941387
       31      14.158333       0.898726

 Density error is 5651.793714006863
                          Error Threshold = 0.002843689983

       Energy                       Rydberg                            eV
   E_KohnSham              -98.943353656431            -1346.193388956595
     E_Harris             -209.967083945782            -2856.748734106952
      E_Fermi               -1.004916549393              -13.672591086239

 PW ALGORITHM --------------- ION=   1  ELEC=   5--------------------------------
  K-point    CG iter num      Time(Sec)
        1      11.666667       0.910509
        2      13.991667       0.924825
        3      13.591667       0.954113
        4      12.550000       0.837785
        5      11.791667       0.855098
        6      11.475000       0.790008
        7      13.625000       0.994728
        8      13.216667       0.881552
        9      13.316667       0.946227
       10      12.608333       0.844413
       11      12.550000       0.909120
       12      12.425000       0.834814
       13      12.558333       0.842026
       14      13.533333       0.824991
       15      12.516667       0.791437
       16      13.066667       0.807675
       17      13.408333       0.823513
       18      12.408333       0.774033
       19      12.233333       0.753335
       20      12.000000       0.744466
       21      12.158333       0.747778
       22      12.250000       0.784719
       23      13.125000       0.844329
       24      12.458333       0.770120
       25      12.066667       0.741828
       26      11.675000       0.726421
       27      11.375000       0.733526
       28      11.716667       0.735911
       29      12.558333       0.772986
       30      11.833333       0.753478
       31      11.516667       0.725290

 Density error is 2066.062964812746
                          Error Threshold = 0.002843689983

       Energy                       Rydberg                            eV
   E_KohnSham              -83.806558980952            -1140.246731914021
     E_Harris             -111.382437347174            -1515.435805049567
      E_Fermi               +0.364526189303               +4.959633244741

 PW ALGORITHM --------------- ION=   1  ELEC=   6--------------------------------
  K-point    CG iter num      Time(Sec)
        1       9.675000       0.776806
        2      11.000000       0.783996
        3       9.791667       0.698182
        4       8.708333       0.632369
        5       7.975000       0.591007
        6       7.891667       0.596490
        7      10.908333       0.789709
        8      10.175000       0.761570
        9       9.808333       0.712970
       10       9.766667       0.699424
       11       8.691667       0.640371
       12       8.291667       0.614701
       13       9.358333       0.683835
       14       9.783333       0.732526
       15      10.741667       0.801428
       16       9.950000       0.711672
       17      10.141667       0.666410
       18       9.050000       0.601352
       19       9.075000       0.595942
       20       8.600000       0.569031
       21       9.066667       0.597270
       22       9.208333       0.624897
       23       8.950000       0.588570
       24       9.391667       0.614812
       25       8.833333       0.577133
       26       7.725000       0.510309
       27       7.375000       0.504456
       28       8.150000       0.545524
       29       8.508333       0.558257
       30       8.525000       0.577905
       31       7.883333       0.564117

 Density error is 146.024211985516
                          Error Threshold = 0.002843689983

       Energy                       Rydberg                            eV
   E_KohnSham              -87.178591106933            -1186.125582666421
     E_Harris              -91.422613001635            -1243.868462871117
      E_Fermi               +0.595007499876               +8.095492351043

 PW ALGORITHM --------------- ION=   1  ELEC=   7--------------------------------
  K-point    CG iter num      Time(Sec)
        1       5.675000       0.526141
        2       6.441667       0.514406
        3       4.800000       0.407895
        4       3.933333       0.286168
        5       3.900000       0.348679
        6       3.533333       0.264545
        7       6.316667       0.518328
        8       4.858333       0.423754
        9       4.333333       0.315201
       10       3.933333       0.362244
       11       3.866667       0.306170
       12       3.725000       0.324951
       13       3.950000       0.319448
       14       4.308333       0.355010
       15       4.500000       0.392107
       16       4.550000       0.332779
       17       4.341667       0.390194
       18       3.600000       0.287061
       19       3.458333       0.307292
       20       3.291667       0.248472
       21       3.608333       0.334525
       22       3.800000       0.301776
       23       3.991667       0.345056
       24       3.800000       0.309332
       25       3.400000       0.290923
       26       3.083333       0.249306
       27       3.016667       0.284333
       28       3.833333       0.283607
       29       3.858333       0.348172
       30       3.466667       0.271090
       31       3.575000       0.323213

 Density error is 17.779131363309
                          Error Threshold = 0.002843689983

       Energy                       Rydberg                            eV
   E_KohnSham              -89.150129659014            -1212.949740801389
     E_Harris              -89.591687746358            -1218.957446787243
      E_Fermi               +0.605463423620               +8.237752491815

 PW ALGORITHM --------------- ION=   1  ELEC=   8--------------------------------
  K-point    CG iter num      Time(Sec)
        1       2.975000       0.306236
        2       2.766667       0.262955
        3       2.283333       0.225724
        4       2.475000       0.206192
        5       2.191667       0.167749
        6       2.225000       0.220798
        7       2.583333       0.216782
        8       2.733333       0.212866
        9       2.358333       0.246092
       10       2.291667       0.178397
       11       2.308333       0.182178
       12       2.275000       0.236132
       13       2.291667       0.177187
       14       2.333333       0.183360
       15       2.450000       0.250773
       16       2.275000       0.178512
       17       2.341667       0.195171
       18       2.575000       0.253719
       19       2.441667       0.186518
       20       2.358333       0.202760
       21       2.341667       0.223190
       22       2.608333       0.203755
       23       2.533333       0.228092
       24       2.308333       0.209962
       25       2.508333       0.190527
       26       2.425000       0.225938
       27       2.425000       0.213399
       28       2.191667       0.170352
       29       2.283333       0.216067
       30       2.341667       0.203894
       31       2.200000       0.171782

 Density error is 1.970980735018
                          Error Threshold = 0.002843689983

       Energy                       Rydberg                            eV
   E_KohnSham              -89.315783678280            -1215.203579360002
     E_Harris              -89.500074453823            -1217.710983996235
      E_Fermi               +0.608449295070               +8.278377357032

 PW ALGORITHM --------------- ION=   1  ELEC=   9--------------------------------
  K-point    CG iter num      Time(Sec)
        1       3.041667       0.317077
        2       2.691667       0.252929
        3       2.383333       0.249550
        4       2.266667       0.179892
        5       2.250000       0.172670
        6       2.225000       0.236494
        7       2.750000       0.223757
        8       2.408333       0.207493
        9       2.633333       0.257750
       10       2.241667       0.175150
       11       2.241667       0.196976
       12       2.241667       0.221498
       13       2.375000       0.184177
       14       2.575000       0.228021
       15       2.516667       0.233861
       16       2.341667       0.183861
       17       2.516667       0.237466
       18       2.733333       0.227939
       19       2.358333       0.181968
       20       2.341667       0.180863
       21       2.408333       0.185809
       22       2.533333       0.197720
       23       2.308333       0.179630
       24       2.300000       0.179003
       25       2.316667       0.178330
       26       2.450000       0.187539
       27       2.600000       0.202959
       28       2.233333       0.174714
       29       2.225000       0.171954
       30       2.258333       0.177272
       31       2.233333       0.174666

 Density error is 72.731625509148
                          Error Threshold = 0.002843689983

       Energy                       Rydberg                            eV
   E_KohnSham              -88.979290156438            -1210.625350122875
     E_Harris              -89.791514553412            -1221.676229976325
      E_Fermi               +0.604177256367               +8.220253288593

 PW ALGORITHM --------------- ION=   1  ELEC=  10--------------------------------
  K-point    CG iter num      Time(Sec)
        1       2.591667       0.271815
        2       2.583333       0.265352
        3       2.200000       0.209342
        4       2.125000       0.194851
        5       2.116667       0.163510
        6       2.116667       0.191254
        7       2.650000       0.252053
        8       2.266667       0.179287
        9       2.566667       0.245294
       10       2.166667       0.191957
       11       2.166667       0.168848
       12       2.166667       0.206397
       13       2.283333       0.208531
       14       2.491667       0.193517
       15       2.291667       0.229036
       16       2.266667       0.204119
       17       2.400000       0.188733
       18       2.466667       0.253820
       19       2.258333       0.185770
       20       2.191667       0.169808
       21       2.300000       0.239651
       22       2.366667       0.198816
       23       2.150000       0.168255
       24       2.225000       0.232097
       25       2.216667       0.184622
       26       2.100000       0.162306
       27       2.250000       0.231337
       28       2.116667       0.182250
       29       2.183333       0.168940
       30       2.166667       0.207928
       31       2.125000       0.196841

 Density error is 4.051621856226
                          Error Threshold = 0.002843689983

       Energy                       Rydberg                            eV
   E_KohnSham              -89.451116224827            -1217.044873117896
     E_Harris              -89.449716727843            -1217.025831984582
      E_Fermi               +0.610091534072               +8.300721164938

 PW ALGORITHM --------------- ION=   1  ELEC=  11--------------------------------
  K-point    CG iter num      Time(Sec)
        1       2.000000       0.217792
        2       2.000000       0.230576
        3       2.000000       0.172393
        4       2.000000       0.155273
        5       2.000000       0.214103
        6       2.000000       0.169887
        7       2.000000       0.158965
        8       2.000000       0.196490
        9       2.000000       0.191131
       10       2.000000       0.156721
       11       2.000000       0.175081
       12       2.000000       0.208253
       13       2.000000       0.156371
       14       2.000000       0.156743
       15       2.000000       0.214871
       16       2.000000       0.175488
       17       2.000000       0.158644
       18       2.000000       0.189962
       19       2.000000       0.192588
       20       2.000000       0.155476
       21       2.000000       0.163931
       22       2.000000       0.223093
       23       2.000000       0.157366
       24       2.000000       0.156802
       25       2.000000       0.155266
       26       2.000000       0.155034
       27       2.000000       0.158880
       28       2.000000       0.156475
       29       2.000000       0.155960
       30       2.000000       0.157875
       31       2.000000       0.156573

 Density error is 4.786619991261
                          Error Threshold = 0.002843689983

       Energy                       Rydberg                            eV
   E_KohnSham              -89.341451257502            -1215.552804691291
     E_Harris              -89.458549794596            -1217.146012023242
      E_Fermi               +0.609672379884               +8.295018279643

 PW ALGORITHM --------------- ION=   1  ELEC=  12--------------------------------
  K-point    CG iter num      Time(Sec)
        1       2.791667       0.299934
        2       2.541667       0.250459
        3       2.133333       0.208158
        4       2.100000       0.189336
        5       2.116667       0.163505
        6       2.083333       0.196380
        7       2.550000       0.238627
        8       2.233333       0.176736
        9       2.183333       0.209440
       10       2.116667       0.201003
       11       2.175000       0.170224
       12       2.158333       0.195195
       13       2.141667       0.207700
       14       2.141667       0.167550
       15       2.308333       0.204533
       16       2.166667       0.216562
       17       2.258333       0.178264
       18       2.541667       0.222917
       19       2.308333       0.221396
       20       2.083333       0.161994
       21       2.250000       0.196930
       22       2.416667       0.236828
       23       2.116667       0.165799
       24       2.125000       0.187097
       25       2.283333       0.226444
       26       2.291667       0.177243
       27       2.291667       0.201338
       28       2.116667       0.214398
       29       2.141667       0.166316
       30       2.091667       0.169750
       31       2.091667       0.229109

 Density error is 38.497154594377
                          Error Threshold = 0.002843689983

       Energy                       Rydberg                            eV
   E_KohnSham              -89.168737743045            -1213.202916773070
     E_Harris              -89.690719146092            -1220.304838104549
      E_Fermi               +0.601579027459               +8.184902570734

 PW ALGORITHM --------------- ION=   1  ELEC=  13--------------------------------
  K-point    CG iter num      Time(Sec)
        1       2.125000       0.226617
        2       2.075000       0.228705
        3       2.050000       0.218107
        4       2.066667       0.182312
        5       2.083333       0.220719
        6       2.066667       0.176720
        7       2.108333       0.166808
        8       2.083333       0.205296
        9       2.033333       0.184192
       10       2.050000       0.160355
       11       2.050000       0.184043
       12       2.033333       0.201609
       13       2.041667       0.159803
       14       2.033333       0.158958
       15       2.150000       0.237303
       16       2.058333       0.164492
       17       2.066667       0.164039
       18       2.016667       0.200631
       19       2.033333       0.180332
       20       2.016667       0.157113
       21       2.083333       0.188162
       22       2.033333       0.200778
       23       2.066667       0.162268
       24       2.033333       0.159065
       25       2.016667       0.156563
       26       2.041667       0.157971
       27       2.066667       0.163440
       28       2.083333       0.163474
       29       2.033333       0.158031
       30       2.016667       0.158977
       31       2.066667       0.161758

 Density error is 0.318780377119
                          Error Threshold = 0.002843689983

       Energy                       Rydberg                            eV
   E_KohnSham              -89.427159204683            -1216.718921136838
     E_Harris              -89.433034073548            -1216.798852828398
      E_Fermi               +0.611944488820               +8.325931907651

 PW ALGORITHM --------------- ION=   1  ELEC=  14--------------------------------
  K-point    CG iter num      Time(Sec)
        1       3.333333       0.340996
        2       3.358333       0.318542
        3       2.441667       0.241255
        4       2.108333       0.163231
        5       2.100000       0.168532
        6       2.091667       0.227029
        7       3.075000       0.239097
        8       2.508333       0.224817
        9       2.316667       0.219219
       10       2.208333       0.172089
       11       2.258333       0.205164
       12       2.283333       0.213908
       13       2.208333       0.171526
       14       2.300000       0.205424
       15       2.450000       0.232710
       16       2.216667       0.175357
       17       2.350000       0.215488
       18       2.666667       0.242416
       19       2.391667       0.184636
       20       2.250000       0.218728
       21       2.383333       0.206105
       22       2.625000       0.206666
       23       2.158333       0.227434
       24       2.225000       0.187026
       25       2.383333       0.183452
       26       2.341667       0.236757
       27       2.275000       0.189172
       28       2.100000       0.164446
       29       2.225000       0.221607
       30       2.266667       0.193674
       31       2.100000       0.164385

 Density error is 0.597817653450
                          Error Threshold = 0.000506000599

       Energy                       Rydberg                            eV
   E_KohnSham              -89.421600692457            -1216.643293698163
     E_Harris              -89.436942313569            -1216.852027161837
      E_Fermi               +0.611367785694               +8.318085459086

 PW ALGORITHM --------------- ION=   1  ELEC=  15--------------------------------
  K-point    CG iter num      Time(Sec)
        1       2.000000       0.212500
        2       2.000000       0.222193
        3       2.016667       0.221517
        4       2.050000       0.203098
        5       2.033333       0.157221
        6       2.016667       0.159720
        7       2.000000       0.215917
        8       2.016667       0.159954
        9       2.083333       0.163251
       10       2.000000       0.191381
       11       2.000000       0.179906
       12       2.000000       0.155987
       13       2.025000       0.173055
       14       2.000000       0.203730
       15       2.033333       0.161785
       16       2.033333       0.160842
       17       2.000000       0.198309
       18       2.016667       0.176974
       19       2.033333       0.158080
       20       2.025000       0.181675
       21       2.016667       0.196780
       22       2.000000       0.158614
       23       2.033333       0.159828
       24       2.000000       0.156495
       25       2.016667       0.156601
       26       2.075000       0.160819
       27       2.000000       0.158786
       28       2.033333       0.159304
       29       2.000000       0.155169
       30       2.000000       0.157702
       31       2.000000       0.156957

 Density error is 0.229678327332
                          Error Threshold = 0.000506000599

       Energy                       Rydberg                            eV
   E_KohnSham              -89.427261893000            -1216.720318283066
     E_Harris              -89.433803888293            -1216.809326695337
      E_Fermi               +0.611797483522               +8.323931797962

 PW ALGORITHM --------------- ION=   1  ELEC=  16--------------------------------
  K-point    CG iter num      Time(Sec)
        1       2.000000       0.218311
        2       2.000000       0.222007
        3       2.000000       0.173089
        4       2.000000       0.219517
        5       2.000000       0.160223
        6       2.000000       0.158609
        7       2.000000       0.195002
        8       2.000000       0.187109
        9       2.000000       0.157094
       10       2.000000       0.175683
       11       2.000000       0.205477
       12       2.000000       0.155742
       13       2.000000       0.156543
       14       2.000000       0.207656
       15       2.000000       0.178600
       16       2.000000       0.158396
       17       2.000000       0.187105
       18       2.000000       0.195820
       19       2.000000       0.156211
       20       2.000000       0.160513
       21       2.000000       0.216803
       22       2.000000       0.161010
       23       2.000000       0.157367
       24       2.000000       0.198044
       25       2.000000       0.182002
       26       2.000000       0.156109
       27       2.000000       0.179909
       28       2.000000       0.203054
       29       2.000000       0.155921
       30       2.000000       0.158051
       31       2.000000       0.215225

 Density error is 0.198827273889
                          Error Threshold = 0.000364568774

       Energy                       Rydberg                            eV
   E_KohnSham              -89.430111843810            -1216.759093853102
     E_Harris              -89.431930707298            -1216.783840760417
      E_Fermi               +0.612045008656               +8.327299550176

 PW ALGORITHM --------------- ION=   1  ELEC=  17--------------------------------
  K-point    CG iter num      Time(Sec)
        1       2.000000       0.213963
        2       2.000000       0.220151
        3       2.000000       0.213560
        4       2.000000       0.183764
        5       2.000000       0.183491
        6       2.000000       0.198867
        7       2.000000       0.158468
        8       2.000000       0.165196
        9       2.000000       0.218062
       10       2.000000       0.156680
       11       2.000000       0.156502
       12       2.000000       0.196359
       13       2.000000       0.182972
       14       2.000000       0.156420
       15       2.000000       0.180325
       16       2.000000       0.204255
       17       2.000000       0.158532
       18       2.000000       0.156426
       19       2.000000       0.209898
       20       2.000000       0.169203
       21       2.000000       0.155641
       22       2.000000       0.187346
       23       2.000000       0.194739
       24       2.000000       0.157015
       25       2.000000       0.163383
       26       2.000000       0.215628
       27       2.000000       0.158409
       28       2.000000       0.157206
       29       2.000000       0.155927
       30       2.000000       0.157712
       31       2.000000       0.157122

 Density error is 0.020041369049
                          Error Threshold = 0.000315598847

       Energy                       Rydberg                            eV
   E_KohnSham              -89.431075876227            -1216.772210187024
     E_Harris              -89.431364677540            -1216.776139530479
      E_Fermi               +0.612110504184               +8.328190662562

 PW ALGORITHM --------------- ION=   1  ELEC=  18--------------------------------
  K-point    CG iter num      Time(Sec)
        1       3.200000       0.323131
        2       2.841667       0.265426
        3       2.366667       0.240840
        4       2.300000       0.185469
        5       2.133333       0.164283
        6       2.133333       0.216103
        7       2.908333       0.245404
        8       2.600000       0.217956
        9       2.400000       0.233944
       10       2.291667       0.178488
       11       2.333333       0.199443
       12       2.300000       0.225213
       13       2.366667       0.183891
       14       2.558333       0.220298
       15       2.666667       0.248219
       16       2.341667       0.184243
       17       2.508333       0.230561
       18       3.366667       0.281564
       19       2.525000       0.209884
       20       2.350000       0.230050
       21       2.600000       0.199261
       22       2.825000       0.247226
       23       2.291667       0.215504
       24       2.358333       0.183662
       25       2.341667       0.210586
       26       3.066667       0.264812
       27       2.933333       0.239940
       28       2.150000       0.221314
       29       2.400000       0.185090
       30       2.333333       0.190726
       31       2.150000       0.222862

 Density error is 0.000231413535
                          Error Threshold = 0.000031811697

       Energy                       Rydberg                            eV
   E_KohnSham              -89.431221304253            -1216.774188836839
     E_Harris              -89.431251043875            -1216.774593465155
      E_Fermi               +0.612116450574               +8.328271567339

 PW ALGORITHM --------------- ION=   1  ELEC=  19--------------------------------
  K-point    CG iter num      Time(Sec)
        1       5.441667       0.501643
        2       4.400000       0.404769
        3       3.341667       0.302374
        4       3.033333       0.226745
        5       2.808333       0.275453
        6       2.508333       0.196321
        7       4.216667       0.361196
        8       3.725000       0.288247
        9       3.258333       0.287509
       10       2.950000       0.241859
       11       3.166667       0.259913
       12       3.200000       0.280453
       13       2.966667       0.223705
       14       3.175000       0.239617
       15       3.808333       0.287448
       16       3.591667       0.275397
       17       3.258333       0.248403
       18       4.375000       0.326218
       19       3.016667       0.227148
       20       2.800000       0.211769
       21       3.100000       0.232765
       22       4.358333       0.331045
       23       2.991667       0.227894
       24       2.966667       0.225683
       25       3.141667       0.235839
       26       4.400000       0.330806
       27       4.366667       0.337804
       28       2.825000       0.215728
       29       3.158333       0.236356
       30       2.875000       0.221113
       31       2.575000       0.197917

 Density error is 0.000235016952
                          Error Threshold = 0.000000367323

       Energy                       Rydberg                            eV
   E_KohnSham              -89.431240476048            -1216.774449682483
     E_Harris              -89.431243437580            -1216.774489976201
      E_Fermi               +0.612115755273               +8.328262107283

 PW ALGORITHM --------------- ION=   1  ELEC=  20--------------------------------
  K-point    CG iter num      Time(Sec)
        1       2.491667       0.256127
        2       2.658333       0.275591
        3       2.208333       0.205341
        4       2.133333       0.196193
        5       2.116667       0.163286
        6       2.116667       0.188598
        7       2.625000       0.248702
        8       2.250000       0.177337
        9       2.233333       0.200352
       10       2.133333       0.204533
       11       2.208333       0.172123
       12       2.108333       0.183013
       13       2.125000       0.213490
       14       2.258333       0.176171
       15       2.241667       0.192731
       16       2.333333       0.232012
       17       2.258333       0.177997
       18       2.875000       0.245794
       19       2.225000       0.212845
       20       2.125000       0.164993
       21       2.183333       0.188453
       22       2.875000       0.271272
       23       2.125000       0.166545
       24       2.141667       0.191720
       25       2.216667       0.209895
       26       3.300000       0.252462
       27       3.191667       0.310571
       28       2.100000       0.163876
       29       2.150000       0.166560
       30       2.133333       0.233254
       31       2.125000       0.171294

 Density error is 0.010312678734
                          Error Threshold = 0.000000367323

       Energy                       Rydberg                            eV
   E_KohnSham              -89.430957052416            -1216.770593506141
     E_Harris              -89.431275923179            -1216.774931965443
      E_Fermi               +0.612110314317               +8.328188079286

 PW ALGORITHM --------------- ION=   1  ELEC=  21--------------------------------
  K-point    CG iter num      Time(Sec)
        1       3.058333       0.318210
        2       3.216667       0.295854
        3       2.633333       0.240306
        4       2.433333       0.215527
        5       2.350000       0.179738
        6       2.350000       0.226597
        7       3.250000       0.276027
        8       2.608333       0.226296
        9       2.741667       0.261450
       10       2.391667       0.185021
       11       2.500000       0.234271
       12       2.441667       0.215824
       13       2.391667       0.184719
       14       2.741667       0.271901
       15       2.650000       0.215134
       16       2.666667       0.231893
       17       2.766667       0.265077
       18       3.500000       0.267981
       19       2.508333       0.192824
       20       2.475000       0.189711
       21       2.516667       0.193520
       22       3.425000       0.267242
       23       2.425000       0.189105
       24       2.383333       0.184537
       25       2.500000       0.191892
       26       4.408333       0.332554
       27       4.450000       0.344627
       28       2.383333       0.185123
       29       2.508333       0.192263
       30       2.466667       0.192236
       31       2.350000       0.182013

 Density error is 0.157173240387
                          Error Threshold = 0.000000367323

       Energy                       Rydberg                            eV
   E_KohnSham              -89.430904559800            -1216.769879307465
     E_Harris              -89.431798380096            -1216.782040356477
      E_Fermi               +0.612048200264               +8.327342974237

 PW ALGORITHM --------------- ION=   1  ELEC=  22--------------------------------
  K-point    CG iter num      Time(Sec)
        1       3.483333       0.351296
        2       3.450000       0.327069
        3       2.716667       0.255665
        4       2.491667       0.190524
        5       2.483333       0.227307
        6       2.425000       0.221047
        7       3.433333       0.285431
        8       2.766667       0.269025
        9       2.758333       0.213253
       10       2.458333       0.244370
       11       2.600000       0.219074
       12       2.491667       0.190559
       13       2.458333       0.258369
       14       2.741667       0.211868
       15       2.783333       0.242878
       16       2.700000       0.254088
       17       2.758333       0.215977
       18       3.550000       0.337313
       19       2.641667       0.202460
       20       2.566667       0.235323
       21       2.650000       0.232625
       22       3.541667       0.296069
       23       2.500000       0.244449
       24       2.458333       0.190718
       25       2.658333       0.242918
       26       3.533333       0.296414
       27       3.491667       0.309021
       28       2.466667       0.221413
       29       2.641667       0.201944
       30       2.550000       0.269194
       31       2.416667       0.189308

 Density error is 0.017323930782
                          Error Threshold = 0.000000367323

       Energy                       Rydberg                            eV
   E_KohnSham              -89.431137380659            -1216.773046997762
     E_Harris              -89.431345339450            -1216.775876422261
      E_Fermi               +0.612100342817               +8.328052410070

 PW ALGORITHM --------------- ION=   1  ELEC=  23--------------------------------
  K-point    CG iter num      Time(Sec)
        1       3.083333       0.321739
        2       3.133333       0.288262
        3       2.541667       0.234055
        4       2.341667       0.205172
        5       2.325000       0.177645
        6       2.291667       0.222074
        7       3.150000       0.267987
        8       2.566667       0.251603
        9       2.566667       0.244176
       10       2.316667       0.179596
       11       2.425000       0.218285
       12       2.325000       0.207933
       13       2.300000       0.177958
       14       2.566667       0.198301
       15       2.541667       0.200121
       16       2.541667       0.200046
       17       2.566667       0.200888
       18       3.125000       0.238583
       19       2.416667       0.186340
       20       2.366667       0.181738
       21       2.416667       0.185684
       22       3.066667       0.239324
       23       2.350000       0.183264
       24       2.325000       0.180419
       25       2.408333       0.184851
       26       3.525000       0.268297
       27       3.541667       0.276850
       28       2.325000       0.180869
       29       2.433333       0.187347
       30       2.366667       0.185053
       31       2.291667       0.178217

 Density error is 0.003162965835
                          Error Threshold = 0.000000367323

       Energy                       Rydberg                            eV
   E_KohnSham              -89.431194422723            -1216.773823094858
     E_Harris              -89.431264983114            -1216.774783118228
      E_Fermi               +0.612111307294               +8.328201589429

 PW ALGORITHM --------------- ION=   1  ELEC=  24--------------------------------
  K-point    CG iter num      Time(Sec)
        1       2.675000       0.285247
        2       2.566667       0.258968
        3       2.283333       0.222516
        4       2.208333       0.193284
        5       2.233333       0.171358
        6       2.158333       0.203878
        7       2.575000       0.236344
        8       2.416667       0.188923
        9       2.350000       0.235975
       10       2.233333       0.191039
       11       2.250000       0.174494
       12       2.225000       0.217655
       13       2.233333       0.195757
       14       2.341667       0.181984
       15       2.400000       0.239195
       16       2.291667       0.197419
       17       2.350000       0.184636
       18       2.750000       0.274566
       19       2.308333       0.184883
       20       2.258333       0.173996
       21       2.316667       0.248251
       22       2.750000       0.216927
       23       2.216667       0.191610
       24       2.233333       0.226019
       25       2.300000       0.178132
       26       3.308333       0.287457
       27       3.366667       0.293096
       28       2.241667       0.181847
       29       2.333333       0.242674
       30       2.258333       0.177484
       31       2.150000       0.171597

 Density error is 0.000700290426
                          Error Threshold = 0.000000367323

       Energy                       Rydberg                            eV
   E_KohnSham              -89.431218183945            -1216.774146382867
     E_Harris              -89.431250831054            -1216.774590569575
      E_Fermi               +0.612112640034               +8.328219722281

 PW ALGORITHM --------------- ION=   1  ELEC=  25--------------------------------
  K-point    CG iter num      Time(Sec)
        1       2.358333       0.249172
        2       2.583333       0.229552
        3       2.108333       0.232723
        4       2.050000       0.168982
        5       2.083333       0.160555
        6       2.050000       0.206154
        7       2.616667       0.235151
        8       2.166667       0.171479
        9       2.166667       0.225432
       10       2.058333       0.179429
       11       2.083333       0.162751
       12       2.041667       0.196629
       13       2.075000       0.198687
       14       2.150000       0.168235
       15       2.133333       0.195259
       16       2.108333       0.213469
       17       2.166667       0.170919
       18       2.458333       0.217438
       19       2.108333       0.211466
       20       2.083333       0.161665
       21       2.108333       0.164016
       22       2.516667       0.200399
       23       2.066667       0.162465
       24       2.075000       0.162973
       25       2.108333       0.163916
       26       3.100000       0.237815
       27       3.050000       0.240786
       28       2.066667       0.162179
       29       2.066667       0.161175
       30       2.083333       0.164620
       31       2.058333       0.161689

 Density error is 0.002938003887
                          Error Threshold = 0.000000367323

       Energy                       Rydberg                            eV
   E_KohnSham              -89.431223162276            -1216.774214116526
     E_Harris              -89.431249913173            -1216.774578081159
      E_Fermi               +0.612113401741               +8.328230085841

 PW ALGORITHM --------------- ION=   1  ELEC=  26--------------------------------
  K-point    CG iter num      Time(Sec)
        1       2.000000       0.217624
        2       2.000000       0.223657
        3       2.000000       0.178144
        4       2.000000       0.221094
        5       2.000000       0.157897
        6       2.000000       0.158915
        7       2.000000       0.197166
        8       2.000000       0.184713
        9       2.000000       0.157413
       10       2.000000       0.178228
       11       2.000000       0.204464
       12       2.000000       0.156406
       13       2.000000       0.156444
       14       2.000000       0.220528
       15       2.000000       0.175581
       16       2.000000       0.158529
       17       2.000000       0.199788
       18       2.133333       0.197403
       19       2.000000       0.156582
       20       2.000000       0.179790
       21       2.000000       0.206795
       22       2.000000       0.159338
       23       2.000000       0.157725
       24       2.000000       0.227808
       25       2.000000       0.159196
       26       2.733333       0.208553
       27       2.658333       0.278381
       28       2.000000       0.156096
       29       2.000000       0.154706
       30       2.000000       0.214837
       31       2.000000       0.170397

 Density error is 0.000084919461
                          Error Threshold = 0.000000367323

       Energy                       Rydberg                            eV
   E_KohnSham              -89.431237934686            -1216.774415105487
     E_Harris              -89.431238481663            -1216.774422547484
      E_Fermi               +0.612114578840               +8.328246101099

 PW ALGORITHM --------------- ION=   1  ELEC=  27--------------------------------
  K-point    CG iter num      Time(Sec)
        1       2.116667       0.226719
        2       2.466667       0.268603
        3       2.025000       0.164032
        4       2.000000       0.182986
        5       2.000000       0.196771
        6       2.000000       0.156921
        7       2.466667       0.212755
        8       2.000000       0.206046
        9       2.033333       0.157994
       10       2.000000       0.154894
       11       2.000000       0.213778
       12       2.000000       0.171865
       13       2.000000       0.155017
       14       2.041667       0.188528
       15       2.000000       0.197917
       16       2.000000       0.157523
       17       2.041667       0.176574
       18       2.216667       0.225640
       19       2.025000       0.156492
       20       2.000000       0.154245
       21       2.025000       0.212196
       22       2.325000       0.200968
       23       2.000000       0.156112
       24       2.000000       0.196134
       25       2.025000       0.185810
       26       2.333333       0.179159
       27       2.266667       0.177443
       28       2.000000       0.155687
       29       2.000000       0.154546
       30       2.000000       0.156474
       31       2.000000       0.155548

 Density error is 0.000005342200
                          Error Threshold = 0.000000134793

       Energy                       Rydberg                            eV
   E_KohnSham              -89.431238082240            -1216.774417113052
     E_Harris              -89.431238176600            -1216.774418396888
      E_Fermi               +0.612114506788               +8.328245120779

 PW ALGORITHM --------------- ION=   1  ELEC=  28--------------------------------
  K-point    CG iter num      Time(Sec)
        1       3.208333       0.330852
        2       3.150000       0.291375
        3       2.541667       0.262662
        4       2.241667       0.171459
        5       2.266667       0.180548
        6       2.183333       0.235500
        7       3.116667       0.243499
        8       2.600000       0.240028
        9       2.483333       0.223103
       10       2.300000       0.179030
       11       2.375000       0.236267
       12       2.558333       0.213210
       13       2.291667       0.177747
       14       2.441667       0.251433
       15       2.558333       0.208281
       16       2.575000       0.221432
       17       2.450000       0.243797
       18       2.966667       0.226832
       19       2.341667       0.219395
       20       2.275000       0.204401
       21       2.375000       0.183183
       22       2.908333       0.286979
       23       2.250000       0.182631
       24       2.308333       0.180076
       25       2.358333       0.245652
       26       3.208333       0.250501
       27       3.308333       0.302045
       28       2.241667       0.192851
       29       2.808333       0.216287
       30       2.275000       0.244511
       31       2.166667       0.170528

 Density error is 0.000002368193
                          Error Threshold = 0.000000008480

       Energy                       Rydberg                            eV
   E_KohnSham              -89.431238109434            -1216.774417483051
     E_Harris              -89.431238174506            -1216.774418368401
      E_Fermi               +0.612114467289               +8.328244583359

 PW ALGORITHM --------------- ION=   1  ELEC=  29--------------------------------
  K-point    CG iter num      Time(Sec)
        1       2.066667       0.221515
        2       2.166667       0.237552
        3       2.000000       0.168346
        4       2.058333       0.191682
        5       2.000000       0.192664
        6       2.016667       0.159170
        7       2.291667       0.201555
        8       2.066667       0.208243
        9       2.050000       0.161577
       10       2.033333       0.159064
       11       2.050000       0.222066
       12       2.200000       0.176692
       13       2.075000       0.161796
       14       2.108333       0.214255
       15       2.033333       0.179300
       16       2.000000       0.158584
       17       2.058333       0.190013
       18       2.125000       0.204804
       19       2.116667       0.164391
       20       2.058333       0.159715
       21       2.083333       0.162097
       22       2.075000       0.164055
       23       2.025000       0.159741
       24       2.016667       0.157552
       25       2.083333       0.161552
       26       2.283333       0.176139
       27       2.175000       0.172126
       28       2.033333       0.158980
       29       2.141667       0.165717
       30       2.033333       0.159903
       31       2.016667       0.157866

 Density error is 0.000000399481
                          Error Threshold = 0.000000003759

[...]

 DIRECT COORDINATES
         atom                   x                   y                   z                 mag                  vx                  vy                  vz
     taud_Al1           +0.000000           +0.000000           +0.000000           +0.000000           +0.000000           +0.000000           +0.000000
     taud_Al2           +0.333333           +0.333333           +0.047161           +0.000000           +0.000000           +0.000000           +0.000000
     taud_Al3           +0.666667           +0.666667           +0.094269           +0.000000           +0.000000           +0.000000           +0.000000
     taud_Al4           +0.000000           +0.000000           +0.141474           +0.000000           +0.000000           +0.000000           +0.000000
     taud_Al5           +0.333333           +0.333333           +0.188852           +0.000000           +0.000000           +0.000000           +0.000000
     taud_Al6           +0.666667           +0.666667           +0.236445           +0.000000           +0.000000           +0.000000           +0.000000
     taud_Al7           +0.000000           +0.000000           +0.284129           +0.000000           +0.000000           +0.000000           +0.000000
     taud_Al8           +0.333333           +0.333333           +0.331846           +0.000000           +0.000000           +0.000000           +0.000000
     taud_Al9           +0.666667           +0.666667           +0.379740           +0.000000           +0.000000           +0.000000           +0.000000
    taud_Al10           +0.000000           +0.000000           +0.427898           +0.000000           +0.000000           +0.000000           +0.000000
    taud_Al11           +0.333333           +0.333333           +0.476023           +0.000000           +0.000000           +0.000000           +0.000000
    taud_Al12           +0.666667           +0.666667           +0.523977           +0.000000           +0.000000           +0.000000           +0.000000
    taud_Al13           +0.000000           +0.000000           +0.572102           +0.000000           +0.000000           +0.000000           +0.000000
    taud_Al14           +0.333333           +0.333333           +0.620260           +0.000000           +0.000000           +0.000000           +0.000000
    taud_Al15           +0.666667           +0.666667           +0.668154           +0.000000           +0.000000           +0.000000           +0.000000
    taud_Al16           +1.000000           +1.000000           +0.715871           +0.000000           +0.000000           +0.000000           +0.000000
    taud_Al17           +0.333333           +0.333333           +0.763555           +0.000000           +0.000000           +0.000000           +0.000000
    taud_Al18           +0.666667           +0.666667           +0.811148           +0.000000           +0.000000           +0.000000           +0.000000
    taud_Al19           +1.000000           +1.000000           +0.858526           +0.000000           +0.000000           +0.000000           +0.000000
    taud_Al20           +0.333333           +0.333333           +0.905731           +0.000000           +0.000000           +0.000000           +0.000000
    taud_Al21           +0.666667           +0.666667           +0.952839           +0.000000           +0.000000           +0.000000           +0.000000

 Setup the structure factor in plane wave basis.
 Setup the extrapolated charge.
 Setup the structure factor in plane wave basis.
 Setup the Vl+Vh+Vxc according to new structure factor and new charge.
 Setup the new wave functions?

 -------------------------------------------
 RELAX CELL : 2
 RELAX IONS : 2 (in total: 3)
 -------------------------------------------

 PW ALGORITHM --------------- ION=  +3  ELEC=  +1--------------------------------
  K-point    CG iter num      Time(Sec)
       +1     +56.850000      +3.700423
       +2     +56.850000      +3.611703
       +3     +56.891667      +3.636179
       +4     +57.250000      +3.246084
       +5     +56.991667      +3.133117
       +6     +58.358333      +3.350245
       +7     +56.566667      +3.234755
       +8     +57.216667      +3.242428
       +9     +56.925000      +3.198998
      +10     +57.108333      +3.193908
      +11     +56.783333      +3.163736
      +12     +57.391667      +3.220866
      +13     +56.608333      +3.141444
      +14     +57.316667      +3.242125
      +15     +57.833333      +3.263627
      +16     +57.050000      +3.258236
      +17     +56.975000      +3.249379
      +18     +57.175000      +3.212458
      +19     +57.275000      +3.184916
      +20     +57.166667      +3.218663
      +21     +56.850000      +3.138987
      +22     +57.241667      +3.304362
      +23     +57.191667      +3.227922
      +24     +56.650000      +3.188413
      +25     +57.516667      +3.180044
      +26     +56.608333      +3.117590
      +27     +56.116667      +3.145990
      +28     +57.975000      +3.314053
      +29     +56.700000      +3.139719
      +30     +56.958333      +3.223038
      +31     +59.041667      +3.314845

 Density error is +6078.060416989661
                          Error Threshold = +0.000000006781

       Energy                       Rydberg                            eV
   E_KohnSham            +5380.900812585739           +73210.911423996164
     E_Harris             -141.387519044440            -1923.675885087899
      E_Fermi               +0.053062035010               +0.721946023611

 PW ALGORITHM --------------- ION=   3  ELEC=   2--------------------------------
  K-point    CG iter num      Time(Sec)
        1      88.016667       5.861679
        2      89.200000       5.890874
        3      90.641667       5.426876
        4      89.083333       5.243340
        5      86.675000       4.949510
        6      83.516667       4.981256
        7      89.950000       5.389017
        8      89.291667       5.259668
        9      88.441667       5.228125
       10      88.150000       5.119076
       11      88.383333       5.202827
       12      85.875000       5.022108
       13      88.383333       5.114664
       14      88.083333       5.200875
       15      89.258333       5.224729
       16      89.116667       5.316900
       17      88.925000       5.295006
       18      88.491667       5.140765
       19      88.341667       5.136714
       20      85.683333       4.983066
       21      87.683333       5.048662
       22      88.150000       5.296356
       23      89.783333       5.309582
       24      87.541667       5.113512
       25      87.725000       5.055690
       26      83.933333       4.824897
       27      85.966667       5.056146
       28      88.441667       5.264492
       29      87.450000       5.070588
       30      85.958333       5.126182
       31      82.008333       4.772933

 Density error is 25497.107767598223
                          Error Threshold = 0.010000000000

       Energy                       Rydberg                            eV
   E_KohnSham            -5897.826843469821           -80244.050888543657
     E_Harris           -12045.285843345344          -163884.521508232050
      E_Fermi             -140.394261156661            -1910.161918230666

 PW ALGORITHM --------------- ION=   3  ELEC=   3--------------------------------
  K-point    CG iter num      Time(Sec)
        1      53.650000       3.449555
        2      55.016667       3.501719
        3      54.266667       3.392785
        4      53.325000       3.041280
        5      52.158333       2.819634
        6      48.466667       2.733843
        7      54.225000       3.089299
        8      54.500000       3.045533
        9      52.691667       2.960918
       10      53.383333       2.943206
       11      50.900000       2.781553
       12      48.841667       2.660709
       13      52.691667       2.877193
       14      53.116667       3.033714
       15      54.733333       3.047528
       16      54.533333       3.067154
       17      53.608333       3.038695
       18      51.558333       2.842745
       19      50.858333       2.767872
       20      51.366667       2.810191
       21      52.116667       2.805253
       22      51.275000       2.910410
       23      53.233333       2.964591
       24      53.533333       2.954437
       25      50.791667       2.725941
       26      49.733333       2.700023
       27      50.058333       2.763740
       28      51.200000       2.834365
       29      50.658333       2.758547
       30      50.233333       2.773008
       31      49.283333       2.724690

 Density error is 14338.120176718108
                          Error Threshold = 0.010000000000

       Energy                       Rydberg                            eV
   E_KohnSham            -3052.252447100765           -41528.025015013976
     E_Harris            -6410.457747550399           -87218.752154930975
      E_Fermi              -75.895447143562            -1032.610533410261

 PW ALGORITHM --------------- ION=   3  ELEC=   4--------------------------------
  K-point    CG iter num      Time(Sec)
        1      47.858333       3.121499
        2      49.125000       3.160365
        3      49.741667       3.185137
        4      48.508333       2.906036
        5      48.083333       2.636843
        6      43.933333       2.514245
        7      49.208333       2.841249
        8      48.991667       2.793658
        9      49.191667       2.797295
       10      50.591667       2.832091
       11      48.350000       2.710461
       12      47.541667       2.650940
       13      49.658333       2.792030
       14      49.141667       2.813946
       15      49.058333       2.773473
       16      50.441667       2.886338
       17      48.991667       2.824790
       18      47.216667       2.646766
       19      49.366667       2.736588
       20      47.483333       2.669648
       21      49.433333       2.722339
       22      47.966667       2.809476
       23      47.925000       2.712291
       24      49.941667       2.806736
       25      49.675000       2.786390
       26      46.150000       2.572970
       27      46.008333       2.608035
       28      48.708333       2.745659
       29      49.600000       2.776377
       30      47.233333       2.701205
       31      45.125000       2.536800

 Density error is 8127.890702381827
                          Error Threshold = 0.010000000000

       Energy                       Rydberg                            eV
   E_KohnSham            -2217.861872592521           -30175.558844208321
     E_Harris            -3430.580453639139           -46675.441616917131
      E_Fermi              -40.930156610683             -556.883349937661

 PW ALGORITHM --------------- ION=   3  ELEC=   5--------------------------------
  K-point    CG iter num      Time(Sec)
        1      10.008333       0.817954
        2      12.600000       0.870009
        3      12.891667       0.933800
        4      13.008333       0.906294
        5      13.216667       0.944163
        6      12.941667       0.908285
        7      11.600000       0.851762
        8       9.816667       0.699222
        9      11.508333       0.789649
       10      14.441667       1.041586
       11      14.425000       1.008985
       12      13.300000       0.912365
       13      14.450000       0.963090
       14      12.516667       0.796918
       15       9.850000       0.617696
       16      11.716667       0.741885
       17      12.983333       0.824879
       18      13.700000       0.895490
       19      14.091667       0.891212
       20      13.633333       0.865799
       21      14.108333       0.885280
       22      13.158333       0.878133
       23      13.675000       0.880528
       24      15.066667       0.956101
       25      14.950000       0.932269
       26      14.783333       0.931546
       27      14.891667       0.976700
       28      13.966667       0.890900
       29      15.091667       0.948196
       30      13.908333       0.912182
       31      12.475000       0.779160

 Density error is 6209.624230288485
                          Error Threshold = 0.010000000000

       Energy                       Rydberg                            eV
   E_KohnSham            -1854.649122391842           -25233.795855228444
     E_Harris            -2245.021888510215           -30545.089818459663
      E_Fermi              -26.875896921092             -365.665336987513

 PW ALGORITHM --------------- ION=   3  ELEC=   6--------------------------------
  K-point    CG iter num      Time(Sec)
        1       8.908333       0.737874
        2      10.625000       0.785068
        3      11.233333       0.800730
        4      10.691667       0.772687
        5       9.216667       0.658003
        6       6.716667       0.516105
        7      10.925000       0.824593
        8      10.183333       0.711885
        9      11.375000       0.790439
       10      11.500000       0.892152
       11      13.258333       0.924392
       12      10.308333       0.797796
       13      12.075000       0.866800
       14      10.441667       0.756618
       15      11.025000       0.752462
       16      11.291667       0.722382
       17      11.316667       0.727484
       18      10.608333       0.692964
       19      12.150000       0.815023
       20      10.375000       0.664874
       21      11.558333       0.735848
       22      11.891667       0.791745
       23       9.508333       0.628256
       24      10.800000       0.705443
       25      12.875000       0.819757
       26       9.816667       0.603470
       27       9.325000       0.591027
       28      11.383333       0.719529
       29      10.708333       0.686550
       30      11.050000       0.725614
       31       8.383333       0.537149

 Density error is 8051.505239517176
                          Error Threshold = 0.010000000000

       Energy                       Rydberg                            eV
   E_KohnSham            -1056.562683960717           -14375.272796038960
     E_Harris            -1915.693472248232           -26064.346843980820
      E_Fermi              -23.203351235604             -315.697789499561

 PW ALGORITHM --------------- ION=   3  ELEC=   7--------------------------------
  K-point    CG iter num      Time(Sec)
        1      35.750000       2.354891
        2      36.483333       2.379565
        3      36.850000       2.382638
        4      37.116667       2.388151
        5      37.233333       2.300160
        6      34.691667       2.054510
        7      37.958333       2.217592
        8      36.691667       2.112006
        9      37.758333       2.184058
       10      37.358333       2.145911
       11      34.916667       1.960187
       12      36.958333       2.115084
       13      37.383333       2.129158
       14      36.008333       2.085007
       15      36.900000       2.113568
       16      37.466667       2.159583
       17      37.450000       2.187872
       18      36.933333       2.121862
       19      38.658333       2.207538
       20      36.908333       2.107574
       21      38.050000       2.145370
       22      37.308333       2.223416
       23      36.808333       2.140007
       24      36.541667       2.153555
       25      38.300000       2.159505
       26      36.700000       2.085884
       27      36.791667       2.132578
       28      37.900000       2.192645
       29      37.850000       2.166383
       30      37.633333       2.206066
       31      35.683333       2.045442

 Density error is 4476.495797622234
                          Error Threshold = 0.010000000000

       Energy                       Rydberg                            eV
   E_KohnSham            -1133.592272825674           -15423.314119199729
     E_Harris            -1416.946898976952           -19278.551589516919
      E_Fermi              -16.442106393174             -223.706334069397

 PW ALGORITHM --------------- ION=   3  ELEC=   8--------------------------------
  K-point    CG iter num      Time(Sec)
        1      21.550000       1.527201
        2      23.066667       1.490453
        3      24.316667       1.612391
        4      26.283333       1.718066
        5      26.266667       1.653684
        6      26.358333       1.755938
        7      24.008333       1.565505
        8      25.775000       1.502380
        9      26.041667       1.529598
       10      26.475000       1.512417
       11      26.908333       1.545751
       12      26.491667       1.524795
       13      25.641667       1.465988
       14      26.158333       1.514639
       15      25.250000       1.464127
       16      23.500000       1.370224
       17      25.766667       1.504170
       18      25.025000       1.420760
       19      26.841667       1.532628
       20      26.250000       1.512865
       21      26.591667       1.499382
       22      25.433333       1.524944
       23      26.191667       1.529410
       24      27.583333       1.591963
       25      26.883333       1.530287
       26      27.600000       1.557284
       27      26.241667       1.521650
       28      25.358333       1.489080
       29      26.750000       1.545160
       30      26.816667       1.588732
       31      25.425000       1.472924

 Density error is 5051.247370398099
                          Error Threshold = 0.010000000000

       Energy                       Rydberg                            eV
   E_KohnSham            -1219.637721563443           -16594.022509000297
     E_Harris            -1230.153006350052           -16737.090298190891
      E_Fermi              -14.637734177705             -199.156590626129

 PW ALGORITHM --------------- ION=   3  ELEC=   9--------------------------------
  K-point    CG iter num      Time(Sec)
        1       2.000000       0.214688
        2       2.000000       0.216816
        3       2.333333       0.222033
        4       2.000000       0.207669
        5       2.000000       0.152861
        6       2.000000       0.156720
        7       2.266667       0.227954
        8       2.000000       0.172304
        9       2.000000       0.155182
       10       2.000000       0.183294
       11       2.000000       0.194937
       12       2.000000       0.154167
       13       2.000000       0.153836
       14       2.000000       0.216319
       15       2.000000       0.162636
       16       2.000000       0.156615
       17       2.000000       0.191736
       18       2.208333       0.203429
       19       2.000000       0.154319
       20       2.000000       0.174499
       21       2.000000       0.204378
       22       2.000000       0.158021
       23       2.000000       0.155623
       24       2.000000       0.209037
       25       2.000000       0.170870
       26       2.000000       0.153189
       27       2.166667       0.197247
       28       2.000000       0.193878
       29       2.000000       0.154634
       30       2.233333       0.191645
       31       2.000000       0.206255

 Density error is 5036.605936632678
                          Error Threshold = 0.010000000000

       Energy                       Rydberg                            eV
   E_KohnSham            +3442.385328732179           +46836.055182360753
     E_Harris            -1221.804954206640           -16623.509221839369
      E_Fermi              -14.514386319611             -197.478356919955

 PW ALGORITHM --------------- ION=   3  ELEC=  10--------------------------------
  K-point    CG iter num      Time(Sec)
        1      79.758333       5.239588
        2      83.133333       4.874508
        3      82.066667       4.861690
        4      80.116667       4.658985
        5      81.125000       4.616932
        6      75.341667       4.449553
        7      80.025000       4.716712
