 *********************************************************
 *                                                       *
 *                  WELCOME TO ABACUS v3.0               *
 *                                                       *
 *            'Atomic-orbital Based Ab-initio            *
 *                  Computation at UStc'                 *
 *                                                       *
 *          Website: http://abacus.ustc.edu.cn/          *
 *                                                       *
 *********************************************************
 Mon Apr 17 15:14:19 2023
 MAKE THE DIR         : OUT.blpstest/
Notice: symbol 'mg_locpsp' is not an element symbol!!!! set the covalent radius to be 0.
 UNIFORM GRID DIM     : 27 * 27 * 27
 UNIFORM GRID DIM(BIG): 27 * 27 * 27
func,idXC_GGA_X_PBE 101
func,idXC_GGA_C_PBE 130
 DONE(0.129955   SEC) : SETUP UNITCELL
 DONE(0.19214    SEC) : SYMMETRY
 DONE(0.5069     SEC) : INIT K-POINTS
 ---------------------------------------------------------
 Self-consistent calculations for electrons
 ---------------------------------------------------------
 SPIN    KPOINTS         PROCESSORS  
 1       286             1           
 ---------------------------------------------------------
 Use plane wave basis
 ---------------------------------------------------------
 ELEMENT NATOM       XC          
 Mg      1           
 ---------------------------------------------------------
 Initial plane wave basis and FFT box
 ---------------------------------------------------------
 DONE(0.508802   SEC) : INIT BASIS
 DONE(0.508856   SEC) : INIT PHI
 DONE(0.536522   SEC) : LOCAL POTENTIAL
 DONE(0.53657    SEC) : NON-LOCAL POTENTIAL
 START CHARGE      : atomic
 DONE(0.614374   SEC) : INIT POTENTIAL
 DONE(0.614458   SEC) : INIT OPTIMIZATION
 DONE(0.615533   SEC) : INIT KEDF
======================== Running OFDFT ========================
Iter        Etot(Ha)          Theta      PotNorm     deltaE(Ha)
0     -8.332336945174e-01   2.000e-01   9.605e-02   -8.332e-01  
1     -8.385563237398e-01   5.311e-02   1.158e-01   -5.323e-03  
2     -8.752184759668e-01   8.790e-02   3.711e-02   -3.666e-02  
3     -8.757656531671e-01   9.003e-03   3.685e-03   -5.472e-04  
4     -8.757809691567e-01   2.766e-03   5.763e-04   -1.532e-05  
5     -8.757811900516e-01   2.598e-04   5.574e-05   -2.209e-07  
6     -8.757811920123e-01   2.221e-05   2.711e-05   -1.961e-09  

  |CLASS_NAME---------|NAME---------------|TIME(Sec)-----|CALLS----|AVG------|PER%-------
                       total               8.2184         21        0.39      1e+02     %
   Driver              driver_line         8.2004         1         8.2       1e+02     %
   PW_Basis            setuptransform      0.10202        1         0.1       1.2       %
   PW_Basis            recip2real          1.237          1484      0.00083   15        %
   PW_Basis            gathers_scatterp    0.10418        1484      7e-05     1.3       %
   Potential           update_from_charge  4.6065         165       0.028     56        %
   Potential           cal_v_eff           4.6036         165       0.028     56        %
   H_Hartree_pw        v_hartree           0.37383        165       0.0023    4.5       %
   PW_Basis            real2recip          1.6957         1812      0.00094   21        %
   PW_Basis            gatherp_scatters    0.13993        1812      7.7e-05   1.7       %
   PotXC               cal_v_eff           4.202          165       0.025     51        %
   XC_Functional       v_xc                3.8198         83        0.046     46        %
   XC_Functional       v_xc_libxc          4.1865         165       0.025     51        %
   ESolver_OF          Run                 7.602          1         7.6       93        %
   KEDF_TF             tf_potential        0.5281         164       0.0032    6.4       %
   KEDF_WT             wt_potential        1.9624         164       0.012     24        %
   KEDF_vW             vw_potential        0.36832        164       0.0022    4.5       %
 ----------------------------------------------------------------------------------------

 START  Time  : Mon Apr 17 15:14:19 2023
 FINISH Time  : Mon Apr 17 15:14:28 2023
 TOTAL  Time  : 9
 SEE INFORMATION IN : OUT.blpstest/
