 *********************************************************
 *                                                       *
 *                  WELCOME TO ABACUS v3.0               *
 *                                                       *
 *            'Atomic-orbital Based Ab-initio            *
 *                  Computation at UStc'                 *
 *                                                       *
 *          Website: http://abacus.ustc.edu.cn/          *
 *                                                       *
 *********************************************************
 Mon Apr 17 15:02:33 2023
 MAKE THE DIR         : OUT.blpstest/
Notice: symbol 'mg_locpsp' is not an element symbol!!!! set the covalent radius to be 0.
 UNIFORM GRID DIM     : 27 * 27 * 27
 UNIFORM GRID DIM(BIG): 27 * 27 * 27
func,idXC_GGA_X_PBE 101
func,idXC_GGA_C_PBE 130
 DONE(0.13876    SEC) : SETUP UNITCELL
 DONE(0.19659    SEC) : SYMMETRY
 DONE(0.513858   SEC) : INIT K-POINTS
 ---------------------------------------------------------
 Self-consistent calculations for electrons
 ---------------------------------------------------------
 SPIN    KPOINTS         PROCESSORS  
 1       286             1           
 ---------------------------------------------------------
 Use plane wave basis
 ---------------------------------------------------------
 ELEMENT NATOM       XC          
 Mg      1           
 ---------------------------------------------------------
 Initial plane wave basis and FFT box
 ---------------------------------------------------------
 DONE(0.515291   SEC) : INIT BASIS
 DONE(0.515361   SEC) : INIT PHI
 DONE(0.54325    SEC) : LOCAL POTENTIAL
 DONE(0.543339   SEC) : NON-LOCAL POTENTIAL
 START CHARGE      : atomic
 DONE(0.62697    SEC) : INIT POTENTIAL
 DONE(0.627037   SEC) : INIT OPTIMIZATION
 DONE(0.628267   SEC) : INIT KEDF
======================== Running OFDFT ========================
Iter        Etot(Ha)          Theta      PotNorm     deltaE(Ha)
0     -8.307845692024e-01   2.000e-01   1.033e-01   -8.308e-01  
1     -8.742191304051e-01   1.095e-01   4.730e-02   -4.343e-02  
2     -8.752170138451e-01   1.382e-02   4.037e-03   -9.979e-04  
3     -8.752337883440e-01   2.970e-03   3.521e-04   -1.677e-05  
4     -8.752338439297e-01   1.011e-04   2.896e-05   -5.559e-08  
5     -8.752338445411e-01   1.283e-05   1.561e-05   -6.114e-10  

  |CLASS_NAME---------|NAME---------------|TIME(Sec)-----|CALLS----|AVG------|PER%-------
                       total               8.6362         21        0.41      1e+02     %
   Driver              driver_line         8.6129         1         8.6       1e+02     %
   PW_Basis            setuptransform      0.10436        1         0.1       1.2       %
   PW_Basis            recip2real          1.4309         1259      0.0011    17        %
   PW_Basis            gathers_scatterp    0.15735        1259      0.00012   1.8       %
   Potential           update_from_charge  4.9358         140       0.035     57        %
   Potential           cal_v_eff           4.9327         140       0.035     57        %
   H_Hartree_pw        v_hartree           0.40316        140       0.0029    4.7       %
   PW_Basis            real2recip          1.7602         1537      0.0011    20        %
   PW_Basis            gatherp_scatters    0.15842        1537      0.0001    1.8       %
   PotXC               cal_v_eff           4.4892         140       0.032     52        %
   XC_Functional       v_xc                3.992          70        0.057     46        %
   XC_Functional       v_xc_libxc          4.4725         140       0.032     52        %
   ESolver_OF          Run                 8.0074         1         8         93        %
   KEDF_TF             tf_potential        0.51991        139       0.0037    6         %
   KEDF_WT             wt_potential        1.9937         139       0.014     23        %
   KEDF_vW             vw_potential        0.40193        139       0.0029    4.7       %
 ----------------------------------------------------------------------------------------

 START  Time  : Mon Apr 17 15:02:33 2023
 FINISH Time  : Mon Apr 17 15:02:41 2023
 TOTAL  Time  : 8
 SEE INFORMATION IN : OUT.blpstest/
