 *********************************************************
 *                                                       *
 *                  WELCOME TO ABACUS v3.0               *
 *                                                       *
 *            'Atomic-orbital Based Ab-initio            *
 *                  Computation at UStc'                 *
 *                                                       *
 *          Website: http://abacus.ustc.edu.cn/          *
 *                                                       *
 *********************************************************
 Mon Jul 24 14:14:39 2023
 MAKE THE DIR         : OUT.blpstest/
Notice: symbol 'In_locpsp' is not an element symbol!!!! set the covalent radius to be 0.
Notice: symbol 'P_locpsp' is not an element symbol!!!! set the covalent radius to be 0.
 UNIFORM GRID DIM     : 45 * 45 * 45
 UNIFORM GRID DIM(BIG): 45 * 45 * 45
func,idXC_GGA_X_PBE 101
func,idXC_GGA_C_PBE 130
 DONE(0.913362   SEC) : SETUP UNITCELL
 DONE(1.00343    SEC) : SYMMETRY
 DONE(1.39009    SEC) : INIT K-POINTS
 ---------------------------------------------------------
 Self-consistent calculations for electrons
 ---------------------------------------------------------
 SPIN    KPOINTS         PROCESSORS  
 1       256             1           
 ---------------------------------------------------------
 Use plane wave basis
 ---------------------------------------------------------
 ELEMENT NATOM       XC          
 In      1           
 P       1           
 ---------------------------------------------------------
 Initial plane wave basis and FFT box
 ---------------------------------------------------------
 DONE(1.64473    SEC) : INIT PLANEWAVE
 MEMORY FOR PSI (MB)  : 117.246
 DONE(1.73536    SEC) : LOCAL POTENTIAL
 DONE(1.73554    SEC) : NON-LOCAL POTENTIAL
 DONE(1.73582    SEC) : INIT BASIS
 START CHARGE      : atomic
 DONE(2.21314    SEC) : INIT SCF
 ITER   ETOT(eV)       EDIFF(eV)      DRHO       TIME(s)    
 CG1    -2.136924e+02  0.000000e+00   5.566e+00  5.601e+02  
 CG2    -2.316290e+02  -1.793658e+01  1.330e+00  2.579e+02  
 CG3    -2.358291e+02  -4.200122e+00  3.723e-02  1.684e+02  
 CG4    -2.358800e+02  -5.091755e-02  7.253e-04  9.858e+01  
 CG5    -2.358884e+02  -8.347190e-03  1.956e-04  6.694e+01  
 CG6    -2.358891e+02  -6.756957e-04  1.663e-05  4.988e+01  
 CG7    -2.358891e+02  -5.103826e-05  1.166e-07  5.080e+01  
 CG8    -2.358891e+02  -1.061039e-06  1.294e-09  7.009e+01  
 CG9    -2.358891e+02  -9.488389e-09  2.985e-11  4.087e+01  

  |CLASS_NAME---------|NAME---------------|TIME(Sec)-----|CALLS----|AVG------|PER%-------
                       total               1365.9         17        80        1e+02     %
   Driver              driver_line         1365.9         1         1.4e+03   1e+02     %
   PW_Basis            setuptransform      0.82686        1         0.83      0.061     %
   PW_Basis_K          setuptransform      0.16758        1         0.17      0.012     %
   ESolver_KS_PW       Run                 1364.2         1         1.4e+03   1e+02     %
   PW_Basis            recip2real          0.47529        62        0.0077    0.035     %
   Potential           init_pot            0.34143        1         0.34      0.025     %
   Potential           update_from_charge  2.1291         10        0.21      0.16      %
   Potential           cal_v_eff           2.1169         10        0.21      0.15      %
   H_Hartree_pw        v_hartree           0.19038        10        0.019     0.014     %
   PW_Basis            real2recip          0.70774        98        0.0072    0.052     %
   PotXC               cal_v_eff           1.914          10        0.19      0.14      %
   XC_Functional       v_xc                887.32         5         1.8e+02   65        %
   XC_Functional       v_xc_libxc          1.8965         10        0.19      0.14      %
   Symmetry            rho_symmetry        0.12686        10        0.013     0.0093    %
   HSolverPW           solve               1361.3         9         1.5e+02   1e+02     %
   WF_atomic           atomic_wfc          0.17689        256       0.00069   0.013     %
   WF_igk              get_sk              0.12593        512       0.00025   0.0092    %
   DiagoIterAssist     diagH_subspace      233.04         2304      0.1       17        %
   OperatorPW          hPsi                1260.6         82924     0.015     92        %
   Operator            EkineticPW          3.8842         82924     4.7e-05   0.28      %
   Operator            VeffPW              1254.9         82924     0.015     92        %
   PW_Basis_K          recip2real          634.73         110580    0.0057    46        %
   PW_Basis_K          gathers_scatterp    76.976         110580    0.0007    5.6       %
   PW_Basis_K          real2recip          540.33         101356    0.0053    40        %
   PW_Basis_K          gatherp_scatters    21.946         101356    0.00022   1.6       %
   Operator            NonlocalPW          0.22301        82924     2.7e-06   0.016     %
   DiagoIterAssist     LAPACK_subspace     0.4748         2304      0.00021   0.035     %
   DiagoCG             diag_once           1075.1         2304      0.47      79        %
   ElecStatePW         psiToRho            49.558         9         5.5       3.6       %
   Charge              mix_rho             0.25302        8         0.032     0.019     %
 ----------------------------------------------------------------------------------------

 START  Time  : Mon Jul 24 14:14:39 2023
 FINISH Time  : Mon Jul 24 14:37:25 2023
 TOTAL  Time  : 1.4e+03
 SEE INFORMATION IN : OUT.blpstest/
