                                                                                     
                             WELCOME TO ABACUS                                       
                                                                                     
               'Atomic-orbital Based Ab-initio Computation at UStc'                  
                                                                                     
                     Website: http://abacus.ustc.edu.cn/                             
                                                                                     
    Version: Parallel, in development
    Processor Number is 1
    Start Time is Fri Sep 10 11:36:16 2021
                                                                                     
 ------------------------------------------------------------------------------------

 READING GENERAL INFORMATION
                           global_out_dir = OUT.blpstest/
                           global_in_card = INPUT
                               pseudo_dir = ./
                              orbital_dir = ./
                              pseudo_type = blps
                                    DRANK = 1
                                    DSIZE = 1
                                   DCOLOR = 1
                                    GRANK = 1
                                    GSIZE = 1




 >>>>>>>>>>>>>>>>>>>>>>>>>>>>>>>>>>>>>>>>>>>>>>>>>>>>>>>>>>>>>>>>>>>>>>
 |                                                                    |
 | Reading atom information in unitcell:                              |
 | From the input file and the structure file we know the number of   |
 | different elments in this unitcell, then we list the detail        |
 | information for each element, especially the zeta and polar atomic |
 | orbital number for each element. The total atom number is counted. |
 | We calculate the nearest atom distance for each atom and show the  |
 | Cartesian and Direct coordinates for each atom. We list the file   |
 | address for atomic orbitals. The volume and the lattice vectors    |
 | in real and reciprocal space is also shown.                        |
 |                                                                    |
 <<<<<<<<<<<<<<<<<<<<<<<<<<<<<<<<<<<<<<<<<<<<<<<<<<<<<<<<<<<<<<<<<<<<<<




 READING UNITCELL INFORMATION
                                    ntype = 1
                 atom label for species 1 = Si
                  lattice constant (Bohr) = 4.5213
              lattice constant (Angstrom) = 2.39257

 READING ATOM TYPE 1
                               atom label = Si
                      L=0, number of zeta = 1
                      L=1, number of zeta = 1
                      L=2, number of zeta = 1
             number of atom for this type = 1
                      start magnetization = FALSE

                        TOTAL ATOM NUMBER = 1

 DIRECT COORDINATES
         atom                   x                   y                   z                 mag                  vx                  vy                  vz
     taud_Si1                   0                   0                   0                   0                   0                   0                   0


                          Volume (Bohr^3) = 92.4251
                             Volume (A^3) = 13.696

 Lattice vectors: (Cartesian coordinate: in unit of a_0)
                   +1                  +0                  +0
                   +0                  +1                  +0
                   +0                  +0                  +1
 Reciprocal vectors: (Cartesian coordinate: in unit of 2 pi/a_0)
                   +1                  -0                  +0
                   -0                  +1                  -0
                   +0                  -0                  +1




 >>>>>>>>>>>>>>>>>>>>>>>>>>>>>>>>>>>>>>>>>>>>>>>>>>>>>>>>>>>>>>>>>>>>>>
 |                                                                    |
 | Reading pseudopotentials files:                                    |
 | The pseudopotential file is in UPF format. The 'NC' indicates that |
 | the type of pseudopotential is 'norm conserving'. Functional of    |
 | exchange and correlation is decided by 4 given parameters in UPF   |
 | file.  We also read in the 'core correction' if there exists.      |
 | Also we can read the valence electrons number and the maximal      |
 | angular momentum used in this pseudopotential. We also read in the |
 | trail wave function, trail atomic density and local-pseudopotential|
 | on logrithmic grid. The non-local pseudopotential projector is also|
 | read in if there is any.                                           |
 |                                                                    |
 <<<<<<<<<<<<<<<<<<<<<<<<<<<<<<<<<<<<<<<<<<<<<<<<<<<<<<<<<<<<<<<<<<<<<<




                PAO radial cut off (Bohr) = 16

 Read in pseudopotential file is si.lda.lps
                     pseudopotential type = 
                            functional Ex = LDA
                            functional Ec = LDA
                          functional GCEx = NOGX
                          functional GCEc = NOGC
                 nonlocal core correction = 0
                        valence electrons = 4
                                     lmax = 0
                           number of zeta = 0
                     number of projectors = 0
     initial pseudo atomic orbital number = 0
                                   NLOCAL = 9

 SETUP THE ELECTRONS NUMBER
            electron number of element Si = 4
      total electron number of element Si = 4
                           occupied bands = 2
                                   NBANDS = 12
 DONE : SETUP UNITCELL Time : 0.105657 (SEC)





 >>>>>>>>>>>>>>>>>>>>>>>>>>>>>>>>>>>>>>>>>>>>>>>>>>>>>>>>>>>>>>>>>>>>>>
 |                                                                    |
 | Doing symmetry analysis:                                           |
 | We calculate the norm of 3 vectors and the angles between them,    |
 | the type of Bravais lattice is given. We can judge if the unticell |
 | is a primitive cell. Finally we give the point group operation for |
 | this unitcell. We we use the point group operations to do symmetry |
 | analysis on given k-point mesh and the charge density.             |
 |                                                                    |
 <<<<<<<<<<<<<<<<<<<<<<<<<<<<<<<<<<<<<<<<<<<<<<<<<<<<<<<<<<<<<<<<<<<<<<




 LATTICE VECTORS: (CARTESIAN COORDINATE: IN UNIT OF A0)
                   +1                  +0                  +0
                   +0                  +1                  +0
                   +0                  +0                  +1
                       right hand lattice = 1
                                   NORM_A = 1
                                   NORM_B = 1
                                   NORM_C = 1
                           ALPHA (DEGREE) = 90
                           BETA  (DEGREE) = 90
                           GAMMA (DEGREE) = 90
                             BRAVAIS TYPE = 1
                     BRAVAIS LATTICE NAME = 01. Cubic P (simple)
 STANDARD LATTICE VECTORS: (CARTESIAN COORDINATE: IN UNIT OF A0)
                   +1                  +0                  +0
                   +0                  +1                  +0
                   +0                  +0                  +1
                                    IBRAV = 1
                                  BRAVAIS = SIMPLE CUBIC
                       LATTICE CONSTANT A = 4.3589
                                    ibrav = 1
                        ROTATION MATRICES = 48
              PURE POINT GROUP OPERATIONS = 48
                   SPACE GROUP OPERATIONS = 48
                              POINT GROUP = O_h
 DONE : SYMMETRY Time : 0.206978 (SEC)





 >>>>>>>>>>>>>>>>>>>>>>>>>>>>>>>>>>>>>>>>>>>>>>>>>>>>>>>>>>>>>>>>>>>>>>
 |                                                                    |
 | Setup K-points                                                     |
 | We setup the k-points according to input parameters.               |
 | The reduced k-points are set according to symmetry operations.     |
 | We treat the spin as another set of k-points.                      |
 |                                                                    |
 <<<<<<<<<<<<<<<<<<<<<<<<<<<<<<<<<<<<<<<<<<<<<<<<<<<<<<<<<<<<<<<<<<<<<<





 SETUP K-POINTS
                                    nspin = 1
                   Input type of k points = Monkhorst-Pack(Gamma)
                                   nkstot = 4096
                               nkstot_ibz = 165
      IBZ             DirectX             DirectY             DirectZ              Weight    ibz2bz
        1                   0                   0                   0         0.000244141         0
        2              0.9375                   0                   0          0.00146484         1
        3               0.875                   0                   0          0.00146484         2
        4              0.8125                   0                   0          0.00146484         3
        5                0.75                   0                   0          0.00146484         4
        6              0.6875                   0                   0          0.00146484         5
        7               0.625                   0                   0          0.00146484         6
        8              0.5625                   0                   0          0.00146484         7
        9                   0                   0                 0.5         0.000732422         8
       10              0.9375              0.9375                   0          0.00292969        17
       11              0.9375               0.875                   0          0.00585938        18
       12              0.9375              0.8125                   0          0.00585938        19
       13              0.9375                0.75                   0          0.00585938        20
       14              0.9375              0.6875                   0          0.00585938        21
       15              0.9375               0.625                   0          0.00585938        22
       16              0.9375              0.5625                   0          0.00585938        23
       17              0.9375                 0.5                   0          0.00292969        24
       18               0.875               0.875                   0          0.00292969        34
       19               0.875              0.8125                   0          0.00585938        35
       20               0.875                0.75                   0          0.00585938        36
       21               0.875              0.6875                   0          0.00585938        37
       22               0.875               0.625                   0          0.00585938        38
       23               0.875              0.5625                   0          0.00585938        39
       24               0.875                 0.5                   0          0.00292969        40
       25              0.8125              0.8125                   0          0.00292969        51
       26              0.8125                0.75                   0          0.00585938        52
       27              0.8125              0.6875                   0          0.00585938        53
       28              0.8125               0.625                   0          0.00585938        54
       29              0.8125              0.5625                   0          0.00585938        55
       30              0.8125                 0.5                   0          0.00292969        56
       31                0.75                0.75                   0          0.00292969        68
       32                0.75              0.6875                   0          0.00585938        69
       33                0.75               0.625                   0          0.00585938        70
       34                0.75              0.5625                   0          0.00585938        71
       35                0.75                 0.5                   0          0.00292969        72
       36              0.6875              0.6875                   0          0.00292969        85
       37              0.6875               0.625                   0          0.00585938        86
       38              0.6875              0.5625                   0          0.00585938        87
       39              0.6875                 0.5                   0          0.00292969        88
       40               0.625               0.625                   0          0.00292969       102
       41               0.625              0.5625                   0          0.00585938       103
       42               0.625                 0.5                   0          0.00292969       104
       43              0.5625              0.5625                   0          0.00292969       119
       44              0.5625                 0.5                   0          0.00292969       120
       45                   0                 0.5                 0.5         0.000732422       136
       46              0.9375              0.9375              0.9375          0.00195312       273
       47              0.9375              0.9375               0.875          0.00585938       274
       48              0.9375              0.9375              0.8125          0.00585938       275
       49              0.9375              0.9375                0.75          0.00585938       276
       50              0.9375              0.9375              0.6875          0.00585938       277
       51              0.9375              0.9375               0.625          0.00585938       278
       52              0.9375              0.9375              0.5625          0.00585938       279
       53              0.9375              0.9375                 0.5          0.00292969       280
       54              0.9375               0.875               0.875          0.00585938       290
       55              0.9375               0.875              0.8125           0.0117188       291
       56              0.9375               0.875                0.75           0.0117188       292
       57              0.9375               0.875              0.6875           0.0117188       293
       58              0.9375               0.875               0.625           0.0117188       294
       59              0.9375               0.875              0.5625           0.0117188       295
       60              0.9375               0.875                 0.5          0.00585938       296
       61              0.9375              0.8125              0.8125          0.00585938       307
       62              0.9375              0.8125                0.75           0.0117188       308
       63              0.9375              0.8125              0.6875           0.0117188       309
       64              0.9375              0.8125               0.625           0.0117188       310
       65              0.9375              0.8125              0.5625           0.0117188       311
       66              0.9375              0.8125                 0.5          0.00585938       312
       67              0.9375                0.75                0.75          0.00585938       324
       68              0.9375                0.75              0.6875           0.0117188       325
       69              0.9375                0.75               0.625           0.0117188       326
       70              0.9375                0.75              0.5625           0.0117188       327
       71              0.9375                0.75                 0.5          0.00585938       328
       72              0.9375              0.6875              0.6875          0.00585938       341
       73              0.9375              0.6875               0.625           0.0117188       342
       74              0.9375              0.6875              0.5625           0.0117188       343
       75              0.9375              0.6875                 0.5          0.00585938       344
       76              0.9375               0.625               0.625          0.00585938       358
       77              0.9375               0.625              0.5625           0.0117188       359
       78              0.9375               0.625                 0.5          0.00585938       360
       79              0.9375              0.5625              0.5625          0.00585938       375
       80              0.9375              0.5625                 0.5          0.00585938       376
       81              0.9375                 0.5                 0.5          0.00146484       392
       82               0.875               0.875               0.875          0.00195312       546
       83               0.875               0.875              0.8125          0.00585938       547
       84               0.875               0.875                0.75          0.00585938       548
       85               0.875               0.875              0.6875          0.00585938       549
       86               0.875               0.875               0.625          0.00585938       550
       87               0.875               0.875              0.5625          0.00585938       551
       88               0.875               0.875                 0.5          0.00292969       552
       89               0.875              0.8125              0.8125          0.00585938       563
       90               0.875              0.8125                0.75           0.0117188       564
       91               0.875              0.8125              0.6875           0.0117188       565
       92               0.875              0.8125               0.625           0.0117188       566
       93               0.875              0.8125              0.5625           0.0117188       567
       94               0.875              0.8125                 0.5          0.00585938       568
       95               0.875                0.75                0.75          0.00585938       580
       96               0.875                0.75              0.6875           0.0117188       581
       97               0.875                0.75               0.625           0.0117188       582
       98               0.875                0.75              0.5625           0.0117188       583
       99               0.875                0.75                 0.5          0.00585938       584
      100               0.875              0.6875              0.6875          0.00585938       597
      101               0.875              0.6875               0.625           0.0117188       598
      102               0.875              0.6875              0.5625           0.0117188       599
      103               0.875              0.6875                 0.5          0.00585938       600
      104               0.875               0.625               0.625          0.00585938       614
      105               0.875               0.625              0.5625           0.0117188       615
      106               0.875               0.625                 0.5          0.00585938       616
      107               0.875              0.5625              0.5625          0.00585938       631
      108               0.875              0.5625                 0.5          0.00585938       632
      109               0.875                 0.5                 0.5          0.00146484       648
      110              0.8125              0.8125              0.8125          0.00195312       819
      111              0.8125              0.8125                0.75          0.00585938       820
      112              0.8125              0.8125              0.6875          0.00585938       821
      113              0.8125              0.8125               0.625          0.00585938       822
      114              0.8125              0.8125              0.5625          0.00585938       823
      115              0.8125              0.8125                 0.5          0.00292969       824
      116              0.8125                0.75                0.75          0.00585938       836
      117              0.8125                0.75              0.6875           0.0117188       837
      118              0.8125                0.75               0.625           0.0117188       838
      119              0.8125                0.75              0.5625           0.0117188       839
      120              0.8125                0.75                 0.5          0.00585938       840
      121              0.8125              0.6875              0.6875          0.00585938       853
      122              0.8125              0.6875               0.625           0.0117188       854
      123              0.8125              0.6875              0.5625           0.0117188       855
      124              0.8125              0.6875                 0.5          0.00585938       856
      125              0.8125               0.625               0.625          0.00585938       870
      126              0.8125               0.625              0.5625           0.0117188       871
      127              0.8125               0.625                 0.5          0.00585938       872
      128              0.8125              0.5625              0.5625          0.00585938       887
      129              0.8125              0.5625                 0.5          0.00585938       888
      130              0.8125                 0.5                 0.5          0.00146484       904
      131                0.75                0.75                0.75          0.00195312      1092
      132                0.75                0.75              0.6875          0.00585938      1093
      133                0.75                0.75               0.625          0.00585938      1094
      134                0.75                0.75              0.5625          0.00585938      1095
      135                0.75                0.75                 0.5          0.00292969      1096
      136                0.75              0.6875              0.6875          0.00585938      1109
      137                0.75              0.6875               0.625           0.0117188      1110
      138                0.75              0.6875              0.5625           0.0117188      1111
      139                0.75              0.6875                 0.5          0.00585938      1112
      140                0.75               0.625               0.625          0.00585938      1126
      141                0.75               0.625              0.5625           0.0117188      1127
      142                0.75               0.625                 0.5          0.00585938      1128
      143                0.75              0.5625              0.5625          0.00585938      1143
      144                0.75              0.5625                 0.5          0.00585938      1144
      145                0.75                 0.5                 0.5          0.00146484      1160
      146              0.6875              0.6875              0.6875          0.00195312      1365
      147              0.6875              0.6875               0.625          0.00585938      1366
      148              0.6875              0.6875              0.5625          0.00585938      1367
      149              0.6875              0.6875                 0.5          0.00292969      1368
      150              0.6875               0.625               0.625          0.00585938      1382
      151              0.6875               0.625              0.5625           0.0117188      1383
      152              0.6875               0.625                 0.5          0.00585938      1384
      153              0.6875              0.5625              0.5625          0.00585938      1399
      154              0.6875              0.5625                 0.5          0.00585938      1400
      155              0.6875                 0.5                 0.5          0.00146484      1416
      156               0.625               0.625               0.625          0.00195312      1638
      157               0.625               0.625              0.5625          0.00585938      1639
      158               0.625               0.625                 0.5          0.00292969      1640
      159               0.625              0.5625              0.5625          0.00585938      1655
      160               0.625              0.5625                 0.5          0.00585938      1656
      161               0.625                 0.5                 0.5          0.00146484      1672
      162              0.5625              0.5625              0.5625          0.00195312      1911
      163              0.5625              0.5625                 0.5          0.00292969      1912
      164              0.5625                 0.5                 0.5          0.00146484      1928
      165                 0.5                 0.5                 0.5         0.000244141      2184
                               nkstot now = 165

  KPOINTS            DIRECT_X            DIRECT_Y            DIRECT_Z              WEIGHT
        1                   0                   0                   0         0.000244141
        2              0.9375                   0                   0          0.00146484
        3               0.875                   0                   0          0.00146484
        4              0.8125                   0                   0          0.00146484
        5                0.75                   0                   0          0.00146484
        6              0.6875                   0                   0          0.00146484
        7               0.625                   0                   0          0.00146484
        8              0.5625                   0                   0          0.00146484
        9                   0                   0                 0.5         0.000732422
       10              0.9375              0.9375                   0          0.00292969
       11              0.9375               0.875                   0          0.00585938
       12              0.9375              0.8125                   0          0.00585938
       13              0.9375                0.75                   0          0.00585938
       14              0.9375              0.6875                   0          0.00585938
       15              0.9375               0.625                   0          0.00585938
       16              0.9375              0.5625                   0          0.00585938
       17              0.9375                 0.5                   0          0.00292969
       18               0.875               0.875                   0          0.00292969
       19               0.875              0.8125                   0          0.00585938
       20               0.875                0.75                   0          0.00585938
       21               0.875              0.6875                   0          0.00585938
       22               0.875               0.625                   0          0.00585938
       23               0.875              0.5625                   0          0.00585938
       24               0.875                 0.5                   0          0.00292969
       25              0.8125              0.8125                   0          0.00292969
       26              0.8125                0.75                   0          0.00585938
       27              0.8125              0.6875                   0          0.00585938
       28              0.8125               0.625                   0          0.00585938
       29              0.8125              0.5625                   0          0.00585938
       30              0.8125                 0.5                   0          0.00292969
       31                0.75                0.75                   0          0.00292969
       32                0.75              0.6875                   0          0.00585938
       33                0.75               0.625                   0          0.00585938
       34                0.75              0.5625                   0          0.00585938
       35                0.75                 0.5                   0          0.00292969
       36              0.6875              0.6875                   0          0.00292969
       37              0.6875               0.625                   0          0.00585938
       38              0.6875              0.5625                   0          0.00585938
       39              0.6875                 0.5                   0          0.00292969
       40               0.625               0.625                   0          0.00292969
       41               0.625              0.5625                   0          0.00585938
       42               0.625                 0.5                   0          0.00292969
       43              0.5625              0.5625                   0          0.00292969
       44              0.5625                 0.5                   0          0.00292969
       45                   0                 0.5                 0.5         0.000732422
       46              0.9375              0.9375              0.9375          0.00195312
       47              0.9375              0.9375               0.875          0.00585938
       48              0.9375              0.9375              0.8125          0.00585938
       49              0.9375              0.9375                0.75          0.00585938
       50              0.9375              0.9375              0.6875          0.00585938
       51              0.9375              0.9375               0.625          0.00585938
       52              0.9375              0.9375              0.5625          0.00585938
       53              0.9375              0.9375                 0.5          0.00292969
       54              0.9375               0.875               0.875          0.00585938
       55              0.9375               0.875              0.8125           0.0117188
       56              0.9375               0.875                0.75           0.0117188
       57              0.9375               0.875              0.6875           0.0117188
       58              0.9375               0.875               0.625           0.0117188
       59              0.9375               0.875              0.5625           0.0117188
       60              0.9375               0.875                 0.5          0.00585938
       61              0.9375              0.8125              0.8125          0.00585938
       62              0.9375              0.8125                0.75           0.0117188
       63              0.9375              0.8125              0.6875           0.0117188
       64              0.9375              0.8125               0.625           0.0117188
       65              0.9375              0.8125              0.5625           0.0117188
       66              0.9375              0.8125                 0.5          0.00585938
       67              0.9375                0.75                0.75          0.00585938
       68              0.9375                0.75              0.6875           0.0117188
       69              0.9375                0.75               0.625           0.0117188
       70              0.9375                0.75              0.5625           0.0117188
       71              0.9375                0.75                 0.5          0.00585938
       72              0.9375              0.6875              0.6875          0.00585938
       73              0.9375              0.6875               0.625           0.0117188
       74              0.9375              0.6875              0.5625           0.0117188
       75              0.9375              0.6875                 0.5          0.00585938
       76              0.9375               0.625               0.625          0.00585938
       77              0.9375               0.625              0.5625           0.0117188
       78              0.9375               0.625                 0.5          0.00585938
       79              0.9375              0.5625              0.5625          0.00585938
       80              0.9375              0.5625                 0.5          0.00585938
       81              0.9375                 0.5                 0.5          0.00146484
       82               0.875               0.875               0.875          0.00195312
       83               0.875               0.875              0.8125          0.00585938
       84               0.875               0.875                0.75          0.00585938
       85               0.875               0.875              0.6875          0.00585938
       86               0.875               0.875               0.625          0.00585938
       87               0.875               0.875              0.5625          0.00585938
       88               0.875               0.875                 0.5          0.00292969
       89               0.875              0.8125              0.8125          0.00585938
       90               0.875              0.8125                0.75           0.0117188
       91               0.875              0.8125              0.6875           0.0117188
       92               0.875              0.8125               0.625           0.0117188
       93               0.875              0.8125              0.5625           0.0117188
       94               0.875              0.8125                 0.5          0.00585938
       95               0.875                0.75                0.75          0.00585938
       96               0.875                0.75              0.6875           0.0117188
       97               0.875                0.75               0.625           0.0117188
       98               0.875                0.75              0.5625           0.0117188
       99               0.875                0.75                 0.5          0.00585938
      100               0.875              0.6875              0.6875          0.00585938
      101               0.875              0.6875               0.625           0.0117188
      102               0.875              0.6875              0.5625           0.0117188
      103               0.875              0.6875                 0.5          0.00585938
      104               0.875               0.625               0.625          0.00585938
      105               0.875               0.625              0.5625           0.0117188
      106               0.875               0.625                 0.5          0.00585938
      107               0.875              0.5625              0.5625          0.00585938
      108               0.875              0.5625                 0.5          0.00585938
      109               0.875                 0.5                 0.5          0.00146484
      110              0.8125              0.8125              0.8125          0.00195312
      111              0.8125              0.8125                0.75          0.00585938
      112              0.8125              0.8125              0.6875          0.00585938
      113              0.8125              0.8125               0.625          0.00585938
      114              0.8125              0.8125              0.5625          0.00585938
      115              0.8125              0.8125                 0.5          0.00292969
      116              0.8125                0.75                0.75          0.00585938
      117              0.8125                0.75              0.6875           0.0117188
      118              0.8125                0.75               0.625           0.0117188
      119              0.8125                0.75              0.5625           0.0117188
      120              0.8125                0.75                 0.5          0.00585938
      121              0.8125              0.6875              0.6875          0.00585938
      122              0.8125              0.6875               0.625           0.0117188
      123              0.8125              0.6875              0.5625           0.0117188
      124              0.8125              0.6875                 0.5          0.00585938
      125              0.8125               0.625               0.625          0.00585938
      126              0.8125               0.625              0.5625           0.0117188
      127              0.8125               0.625                 0.5          0.00585938
      128              0.8125              0.5625              0.5625          0.00585938
      129              0.8125              0.5625                 0.5          0.00585938
      130              0.8125                 0.5                 0.5          0.00146484
      131                0.75                0.75                0.75          0.00195312
      132                0.75                0.75              0.6875          0.00585938
      133                0.75                0.75               0.625          0.00585938
      134                0.75                0.75              0.5625          0.00585938
      135                0.75                0.75                 0.5          0.00292969
      136                0.75              0.6875              0.6875          0.00585938
      137                0.75              0.6875               0.625           0.0117188
      138                0.75              0.6875              0.5625           0.0117188
      139                0.75              0.6875                 0.5          0.00585938
      140                0.75               0.625               0.625          0.00585938
      141                0.75               0.625              0.5625           0.0117188
      142                0.75               0.625                 0.5          0.00585938
      143                0.75              0.5625              0.5625          0.00585938
      144                0.75              0.5625                 0.5          0.00585938
      145                0.75                 0.5                 0.5          0.00146484
      146              0.6875              0.6875              0.6875          0.00195312
      147              0.6875              0.6875               0.625          0.00585938
      148              0.6875              0.6875              0.5625          0.00585938
      149              0.6875              0.6875                 0.5          0.00292969
      150              0.6875               0.625               0.625          0.00585938
      151              0.6875               0.625              0.5625           0.0117188
      152              0.6875               0.625                 0.5          0.00585938
      153              0.6875              0.5625              0.5625          0.00585938
      154              0.6875              0.5625                 0.5          0.00585938
      155              0.6875                 0.5                 0.5          0.00146484
      156               0.625               0.625               0.625          0.00195312
      157               0.625               0.625              0.5625          0.00585938
      158               0.625               0.625                 0.5          0.00292969
      159               0.625              0.5625              0.5625          0.00585938
      160               0.625              0.5625                 0.5          0.00585938
      161               0.625                 0.5                 0.5          0.00146484
      162              0.5625              0.5625              0.5625          0.00195312
      163              0.5625              0.5625                 0.5          0.00292969
      164              0.5625                 0.5                 0.5          0.00146484
      165                 0.5                 0.5                 0.5         0.000244141

           k-point number in this process = 165
       minimum distributed K point number = 165

  KPOINTS         CARTESIAN_X         CARTESIAN_Y         CARTESIAN_Z              WEIGHT
        1                   0                   0                   0         0.000488281
        2              0.9375                   0                   0          0.00292969
        3               0.875                   0                   0          0.00292969
        4              0.8125                   0                   0          0.00292969
        5                0.75                   0                   0          0.00292969
        6              0.6875                   0                   0          0.00292969
        7               0.625                   0                   0          0.00292969
        8              0.5625                   0                   0          0.00292969
        9                   0                   0                 0.5          0.00146484
       10              0.9375              0.9375                   0          0.00585938
       11              0.9375               0.875                   0           0.0117188
       12              0.9375              0.8125                   0           0.0117188
       13              0.9375                0.75                   0           0.0117188
       14              0.9375              0.6875                   0           0.0117188
       15              0.9375               0.625                   0           0.0117188
       16              0.9375              0.5625                   0           0.0117188
       17              0.9375                 0.5                   0          0.00585938
       18               0.875               0.875                   0          0.00585938
       19               0.875              0.8125                   0           0.0117188
       20               0.875                0.75                   0           0.0117188
       21               0.875              0.6875                   0           0.0117188
       22               0.875               0.625                   0           0.0117188
       23               0.875              0.5625                   0           0.0117188
       24               0.875                 0.5                   0          0.00585938
       25              0.8125              0.8125                   0          0.00585938
       26              0.8125                0.75                   0           0.0117188
       27              0.8125              0.6875                   0           0.0117188
       28              0.8125               0.625                   0           0.0117188
       29              0.8125              0.5625                   0           0.0117188
       30              0.8125                 0.5                   0          0.00585938
       31                0.75                0.75                   0          0.00585938
       32                0.75              0.6875                   0           0.0117188
       33                0.75               0.625                   0           0.0117188
       34                0.75              0.5625                   0           0.0117188
       35                0.75                 0.5                   0          0.00585938
       36              0.6875              0.6875                   0          0.00585938
       37              0.6875               0.625                   0           0.0117188
       38              0.6875              0.5625                   0           0.0117188
       39              0.6875                 0.5                   0          0.00585938
       40               0.625               0.625                   0          0.00585938
       41               0.625              0.5625                   0           0.0117188
       42               0.625                 0.5                   0          0.00585938
       43              0.5625              0.5625                   0          0.00585938
       44              0.5625                 0.5                   0          0.00585938
       45                   0                 0.5                 0.5          0.00146484
       46              0.9375              0.9375              0.9375          0.00390625
       47              0.9375              0.9375               0.875           0.0117188
       48              0.9375              0.9375              0.8125           0.0117188
       49              0.9375              0.9375                0.75           0.0117188
       50              0.9375              0.9375              0.6875           0.0117188
       51              0.9375              0.9375               0.625           0.0117188
       52              0.9375              0.9375              0.5625           0.0117188
       53              0.9375              0.9375                 0.5          0.00585938
       54              0.9375               0.875               0.875           0.0117188
       55              0.9375               0.875              0.8125           0.0234375
       56              0.9375               0.875                0.75           0.0234375
       57              0.9375               0.875              0.6875           0.0234375
       58              0.9375               0.875               0.625           0.0234375
       59              0.9375               0.875              0.5625           0.0234375
       60              0.9375               0.875                 0.5           0.0117188
       61              0.9375              0.8125              0.8125           0.0117188
       62              0.9375              0.8125                0.75           0.0234375
       63              0.9375              0.8125              0.6875           0.0234375
       64              0.9375              0.8125               0.625           0.0234375
       65              0.9375              0.8125              0.5625           0.0234375
       66              0.9375              0.8125                 0.5           0.0117188
       67              0.9375                0.75                0.75           0.0117188
       68              0.9375                0.75              0.6875           0.0234375
       69              0.9375                0.75               0.625           0.0234375
       70              0.9375                0.75              0.5625           0.0234375
       71              0.9375                0.75                 0.5           0.0117188
       72              0.9375              0.6875              0.6875           0.0117188
       73              0.9375              0.6875               0.625           0.0234375
       74              0.9375              0.6875              0.5625           0.0234375
       75              0.9375              0.6875                 0.5           0.0117188
       76              0.9375               0.625               0.625           0.0117188
       77              0.9375               0.625              0.5625           0.0234375
       78              0.9375               0.625                 0.5           0.0117188
       79              0.9375              0.5625              0.5625           0.0117188
       80              0.9375              0.5625                 0.5           0.0117188
       81              0.9375                 0.5                 0.5          0.00292969
       82               0.875               0.875               0.875          0.00390625
       83               0.875               0.875              0.8125           0.0117188
       84               0.875               0.875                0.75           0.0117188
       85               0.875               0.875              0.6875           0.0117188
       86               0.875               0.875               0.625           0.0117188
       87               0.875               0.875              0.5625           0.0117188
       88               0.875               0.875                 0.5          0.00585938
       89               0.875              0.8125              0.8125           0.0117188
       90               0.875              0.8125                0.75           0.0234375
       91               0.875              0.8125              0.6875           0.0234375
       92               0.875              0.8125               0.625           0.0234375
       93               0.875              0.8125              0.5625           0.0234375
       94               0.875              0.8125                 0.5           0.0117188
       95               0.875                0.75                0.75           0.0117188
       96               0.875                0.75              0.6875           0.0234375
       97               0.875                0.75               0.625           0.0234375
       98               0.875                0.75              0.5625           0.0234375
       99               0.875                0.75                 0.5           0.0117188
      100               0.875              0.6875              0.6875           0.0117188
      101               0.875              0.6875               0.625           0.0234375
      102               0.875              0.6875              0.5625           0.0234375
      103               0.875              0.6875                 0.5           0.0117188
      104               0.875               0.625               0.625           0.0117188
      105               0.875               0.625              0.5625           0.0234375
      106               0.875               0.625                 0.5           0.0117188
      107               0.875              0.5625              0.5625           0.0117188
      108               0.875              0.5625                 0.5           0.0117188
      109               0.875                 0.5                 0.5          0.00292969
      110              0.8125              0.8125              0.8125          0.00390625
      111              0.8125              0.8125                0.75           0.0117188
      112              0.8125              0.8125              0.6875           0.0117188
      113              0.8125              0.8125               0.625           0.0117188
      114              0.8125              0.8125              0.5625           0.0117188
      115              0.8125              0.8125                 0.5          0.00585938
      116              0.8125                0.75                0.75           0.0117188
      117              0.8125                0.75              0.6875           0.0234375
      118              0.8125                0.75               0.625           0.0234375
      119              0.8125                0.75              0.5625           0.0234375
      120              0.8125                0.75                 0.5           0.0117188
      121              0.8125              0.6875              0.6875           0.0117188
      122              0.8125              0.6875               0.625           0.0234375
      123              0.8125              0.6875              0.5625           0.0234375
      124              0.8125              0.6875                 0.5           0.0117188
      125              0.8125               0.625               0.625           0.0117188
      126              0.8125               0.625              0.5625           0.0234375
      127              0.8125               0.625                 0.5           0.0117188
      128              0.8125              0.5625              0.5625           0.0117188
      129              0.8125              0.5625                 0.5           0.0117188
      130              0.8125                 0.5                 0.5          0.00292969
      131                0.75                0.75                0.75          0.00390625
      132                0.75                0.75              0.6875           0.0117188
      133                0.75                0.75               0.625           0.0117188
      134                0.75                0.75              0.5625           0.0117188
      135                0.75                0.75                 0.5          0.00585938
      136                0.75              0.6875              0.6875           0.0117188
      137                0.75              0.6875               0.625           0.0234375
      138                0.75              0.6875              0.5625           0.0234375
      139                0.75              0.6875                 0.5           0.0117188
      140                0.75               0.625               0.625           0.0117188
      141                0.75               0.625              0.5625           0.0234375
      142                0.75               0.625                 0.5           0.0117188
      143                0.75              0.5625              0.5625           0.0117188
      144                0.75              0.5625                 0.5           0.0117188
      145                0.75                 0.5                 0.5          0.00292969
      146              0.6875              0.6875              0.6875          0.00390625
      147              0.6875              0.6875               0.625           0.0117188
      148              0.6875              0.6875              0.5625           0.0117188
      149              0.6875              0.6875                 0.5          0.00585938
      150              0.6875               0.625               0.625           0.0117188
      151              0.6875               0.625              0.5625           0.0234375
      152              0.6875               0.625                 0.5           0.0117188
      153              0.6875              0.5625              0.5625           0.0117188
      154              0.6875              0.5625                 0.5           0.0117188
      155              0.6875                 0.5                 0.5          0.00292969
      156               0.625               0.625               0.625          0.00390625
      157               0.625               0.625              0.5625           0.0117188
      158               0.625               0.625                 0.5          0.00585938
      159               0.625              0.5625              0.5625           0.0117188
      160               0.625              0.5625                 0.5           0.0117188
      161               0.625                 0.5                 0.5          0.00292969
      162              0.5625              0.5625              0.5625          0.00390625
      163              0.5625              0.5625                 0.5          0.00585938
      164              0.5625                 0.5                 0.5          0.00292969
      165                 0.5                 0.5                 0.5         0.000488281

  KPOINTS            DIRECT_X            DIRECT_Y            DIRECT_Z              WEIGHT
        1                   0                   0                   0         0.000488281
        2              0.9375                   0                   0          0.00292969
        3               0.875                   0                   0          0.00292969
        4              0.8125                   0                   0          0.00292969
        5                0.75                   0                   0          0.00292969
        6              0.6875                   0                   0          0.00292969
        7               0.625                   0                   0          0.00292969
        8              0.5625                   0                   0          0.00292969
        9                   0                   0                 0.5          0.00146484
       10              0.9375              0.9375                   0          0.00585938
       11              0.9375               0.875                   0           0.0117188
       12              0.9375              0.8125                   0           0.0117188
       13              0.9375                0.75                   0           0.0117188
       14              0.9375              0.6875                   0           0.0117188
       15              0.9375               0.625                   0           0.0117188
       16              0.9375              0.5625                   0           0.0117188
       17              0.9375                 0.5                   0          0.00585938
       18               0.875               0.875                   0          0.00585938
       19               0.875              0.8125                   0           0.0117188
       20               0.875                0.75                   0           0.0117188
       21               0.875              0.6875                   0           0.0117188
       22               0.875               0.625                   0           0.0117188
       23               0.875              0.5625                   0           0.0117188
       24               0.875                 0.5                   0          0.00585938
       25              0.8125              0.8125                   0          0.00585938
       26              0.8125                0.75                   0           0.0117188
       27              0.8125              0.6875                   0           0.0117188
       28              0.8125               0.625                   0           0.0117188
       29              0.8125              0.5625                   0           0.0117188
       30              0.8125                 0.5                   0          0.00585938
       31                0.75                0.75                   0          0.00585938
       32                0.75              0.6875                   0           0.0117188
       33                0.75               0.625                   0           0.0117188
       34                0.75              0.5625                   0           0.0117188
       35                0.75                 0.5                   0          0.00585938
       36              0.6875              0.6875                   0          0.00585938
       37              0.6875               0.625                   0           0.0117188
       38              0.6875              0.5625                   0           0.0117188
       39              0.6875                 0.5                   0          0.00585938
       40               0.625               0.625                   0          0.00585938
       41               0.625              0.5625                   0           0.0117188
       42               0.625                 0.5                   0          0.00585938
       43              0.5625              0.5625                   0          0.00585938
       44              0.5625                 0.5                   0          0.00585938
       45                   0                 0.5                 0.5          0.00146484
       46              0.9375              0.9375              0.9375          0.00390625
       47              0.9375              0.9375               0.875           0.0117188
       48              0.9375              0.9375              0.8125           0.0117188
       49              0.9375              0.9375                0.75           0.0117188
       50              0.9375              0.9375              0.6875           0.0117188
       51              0.9375              0.9375               0.625           0.0117188
       52              0.9375              0.9375              0.5625           0.0117188
       53              0.9375              0.9375                 0.5          0.00585938
       54              0.9375               0.875               0.875           0.0117188
       55              0.9375               0.875              0.8125           0.0234375
       56              0.9375               0.875                0.75           0.0234375
       57              0.9375               0.875              0.6875           0.0234375
       58              0.9375               0.875               0.625           0.0234375
       59              0.9375               0.875              0.5625           0.0234375
       60              0.9375               0.875                 0.5           0.0117188
       61              0.9375              0.8125              0.8125           0.0117188
       62              0.9375              0.8125                0.75           0.0234375
       63              0.9375              0.8125              0.6875           0.0234375
       64              0.9375              0.8125               0.625           0.0234375
       65              0.9375              0.8125              0.5625           0.0234375
       66              0.9375              0.8125                 0.5           0.0117188
       67              0.9375                0.75                0.75           0.0117188
       68              0.9375                0.75              0.6875           0.0234375
       69              0.9375                0.75               0.625           0.0234375
       70              0.9375                0.75              0.5625           0.0234375
       71              0.9375                0.75                 0.5           0.0117188
       72              0.9375              0.6875              0.6875           0.0117188
       73              0.9375              0.6875               0.625           0.0234375
       74              0.9375              0.6875              0.5625           0.0234375
       75              0.9375              0.6875                 0.5           0.0117188
       76              0.9375               0.625               0.625           0.0117188
       77              0.9375               0.625              0.5625           0.0234375
       78              0.9375               0.625                 0.5           0.0117188
       79              0.9375              0.5625              0.5625           0.0117188
       80              0.9375              0.5625                 0.5           0.0117188
       81              0.9375                 0.5                 0.5          0.00292969
       82               0.875               0.875               0.875          0.00390625
       83               0.875               0.875              0.8125           0.0117188
       84               0.875               0.875                0.75           0.0117188
       85               0.875               0.875              0.6875           0.0117188
       86               0.875               0.875               0.625           0.0117188
       87               0.875               0.875              0.5625           0.0117188
       88               0.875               0.875                 0.5          0.00585938
       89               0.875              0.8125              0.8125           0.0117188
       90               0.875              0.8125                0.75           0.0234375
       91               0.875              0.8125              0.6875           0.0234375
       92               0.875              0.8125               0.625           0.0234375
       93               0.875              0.8125              0.5625           0.0234375
       94               0.875              0.8125                 0.5           0.0117188
       95               0.875                0.75                0.75           0.0117188
       96               0.875                0.75              0.6875           0.0234375
       97               0.875                0.75               0.625           0.0234375
       98               0.875                0.75              0.5625           0.0234375
       99               0.875                0.75                 0.5           0.0117188
      100               0.875              0.6875              0.6875           0.0117188
      101               0.875              0.6875               0.625           0.0234375
      102               0.875              0.6875              0.5625           0.0234375
      103               0.875              0.6875                 0.5           0.0117188
      104               0.875               0.625               0.625           0.0117188
      105               0.875               0.625              0.5625           0.0234375
      106               0.875               0.625                 0.5           0.0117188
      107               0.875              0.5625              0.5625           0.0117188
      108               0.875              0.5625                 0.5           0.0117188
      109               0.875                 0.5                 0.5          0.00292969
      110              0.8125              0.8125              0.8125          0.00390625
      111              0.8125              0.8125                0.75           0.0117188
      112              0.8125              0.8125              0.6875           0.0117188
      113              0.8125              0.8125               0.625           0.0117188
      114              0.8125              0.8125              0.5625           0.0117188
      115              0.8125              0.8125                 0.5          0.00585938
      116              0.8125                0.75                0.75           0.0117188
      117              0.8125                0.75              0.6875           0.0234375
      118              0.8125                0.75               0.625           0.0234375
      119              0.8125                0.75              0.5625           0.0234375
      120              0.8125                0.75                 0.5           0.0117188
      121              0.8125              0.6875              0.6875           0.0117188
      122              0.8125              0.6875               0.625           0.0234375
      123              0.8125              0.6875              0.5625           0.0234375
      124              0.8125              0.6875                 0.5           0.0117188
      125              0.8125               0.625               0.625           0.0117188
      126              0.8125               0.625              0.5625           0.0234375
      127              0.8125               0.625                 0.5           0.0117188
      128              0.8125              0.5625              0.5625           0.0117188
      129              0.8125              0.5625                 0.5           0.0117188
      130              0.8125                 0.5                 0.5          0.00292969
      131                0.75                0.75                0.75          0.00390625
      132                0.75                0.75              0.6875           0.0117188
      133                0.75                0.75               0.625           0.0117188
      134                0.75                0.75              0.5625           0.0117188
      135                0.75                0.75                 0.5          0.00585938
      136                0.75              0.6875              0.6875           0.0117188
      137                0.75              0.6875               0.625           0.0234375
      138                0.75              0.6875              0.5625           0.0234375
      139                0.75              0.6875                 0.5           0.0117188
      140                0.75               0.625               0.625           0.0117188
      141                0.75               0.625              0.5625           0.0234375
      142                0.75               0.625                 0.5           0.0117188
      143                0.75              0.5625              0.5625           0.0117188
      144                0.75              0.5625                 0.5           0.0117188
      145                0.75                 0.5                 0.5          0.00292969
      146              0.6875              0.6875              0.6875          0.00390625
      147              0.6875              0.6875               0.625           0.0117188
      148              0.6875              0.6875              0.5625           0.0117188
      149              0.6875              0.6875                 0.5          0.00585938
      150              0.6875               0.625               0.625           0.0117188
      151              0.6875               0.625              0.5625           0.0234375
      152              0.6875               0.625                 0.5           0.0117188
      153              0.6875              0.5625              0.5625           0.0117188
      154              0.6875              0.5625                 0.5           0.0117188
      155              0.6875                 0.5                 0.5          0.00292969
      156               0.625               0.625               0.625          0.00390625
      157               0.625               0.625              0.5625           0.0117188
      158               0.625               0.625                 0.5          0.00585938
      159               0.625              0.5625              0.5625           0.0117188
      160               0.625              0.5625                 0.5           0.0117188
      161               0.625                 0.5                 0.5          0.00292969
      162              0.5625              0.5625              0.5625          0.00390625
      163              0.5625              0.5625                 0.5          0.00585938
      164              0.5625                 0.5                 0.5          0.00292969
      165                 0.5                 0.5                 0.5         0.000488281
 DONE : INIT K-POINTS Time : 0.306962 (SEC)





 >>>>>>>>>>>>>>>>>>>>>>>>>>>>>>>>>>>>>>>>>>>>>>>>>>>>>>>>>>>>>>>>>>>>>>
 |                                                                    |
 | Setup plane waves:                                                 |
 | Use the energy cutoff and the lattice vectors to generate the      |
 | dimensions of FFT grid. The number of FFT grid on each processor   |
 | is 'nrxx'. The number of plane wave basis in reciprocal space is   |
 | different for charege/potential and wave functions. We also set    |
 | the 'sticks' for the parallel of FFT.                              |
 |                                                                    |
 <<<<<<<<<<<<<<<<<<<<<<<<<<<<<<<<<<<<<<<<<<<<<<<<<<<<<<<<<<<<<<<<<<<<<<





 SETUP THE PLANE WAVE BASIS
     energy cutoff for wavefunc (unit:Ry) = 75
            [fft grid for wave functions] = 27, 27, 27
          [fft grid for charge/potential] = 27, 27, 27
                      [fft grid division] = 1, 1, 1
      [big fft grid for charge/potential] = 27, 27, 27
                                     nbxx = 19683
                                     nrxx = 19683

 SETUP PLANE WAVES FOR CHARGE/POTENTIAL
                    number of plane waves = 8217
                         number of sticks = 489

 SETUP PLANE WAVES FOR WAVE FUNCTIONS
                    number of plane waves = 2007
                         number of sticks = 193

 PARALLEL PW FOR CHARGE/POTENTIAL
     PROC   COLUMNS(POT)             PW
        1            489           8217
 --------------- sum -------------------
        1            489           8217

 PARALLEL PW FOR WAVE FUNCTIONS
     PROC     COLUMNS(W)             PW
        1            193           2007
 --------------- sum -------------------
        1            193           2007

 SETUP COORDINATES OF PLANE WAVES
              number of total plane waves = 8217

 SETUP COORDINATES OF PLANE WAVES
                            number of |g| = 132
                                  max |g| = 155
                                  min |g| = 0
 DONE : INIT PLANEWAVE Time : 0.421019 (SEC)

                                     npwx = 1064

 SETUP NONLOCAL PSEUDOPOTENTIALS IN PLANE WAVE BASIS
 Si non-local projectors:
      TOTAL NUMBER OF NONLOCAL PROJECTORS = 0

 nhm = 0, not allocate some matrix. DONE : LOCAL POTENTIAL Time : 0.563743 (SEC)


 Init Non-Local PseudoPotential table : 
 Init Non-Local-Pseudopotential done.
 DONE : NON-LOCAL POTENTIAL Time : 0.563975 (SEC)

                                start_pot = atomic
 DONE : INIT POTENTIAL Time : 0.598156 (SEC)


 Make real space PAO into reciprocal space.
       max mesh points in Pseudopotential = 1601
     dq(describe PAO in reciprocal space) = 0.01
                                    max q = 1045

 number of pseudo atomic orbitals for Si is 0
 DONE : INIT BASIS Time : 4.75063 (SEC)


 -------------------------------------------
 SELF-CONSISTENT
 -------------------------------------------

 PW ALGORITHM --------------- ION=   1  ELEC=   1--------------------------------
  K-point    CG iter num      Time(Sec)
        1       6.916667       0.133970
        2       8.250000       0.162282
        3       7.583333       0.148208
        4       7.666667       0.147547
        5       6.750000       0.133160
        6       6.583333       0.127753
        7       6.916667       0.121954
        8       7.250000       0.121059
        9       6.833333       0.120395
       10       8.416667       0.141813
       11       9.083333       0.157467
       12       7.416667       0.127489
       13       7.416667       0.134286
       14       7.333333       0.137166
       15       7.916667       0.142314
       16       7.666667       0.137506
       17       7.833333       0.139700
       18       7.750000       0.141502
       19       8.083333       0.144928
       20       7.500000       0.132561
       21       7.750000       0.134877
       22       6.500000       0.113572
       23       7.416667       0.131002
       24       7.333333       0.132580
       25       7.666667       0.143853
       26       7.583333       0.137778
       27       7.500000       0.135027
       28       7.250000       0.128998
       29       7.166667       0.091804
       30       8.083333       0.090563
       31       6.916667       0.128670
       32       8.333333       0.152039
       33       7.666667       0.138998
       34       7.333333       0.141256
       35       7.000000       0.119082
       36       7.750000       0.124276
       37       7.416667       0.147298
       38       8.250000       0.136811
       39       7.750000       0.140505
       40       7.333333       0.135534
       41       7.333333       0.133294
       42       7.583333       0.137474
       43       7.500000       0.138422
       44       7.166667       0.131113
       45       7.000000       0.129483
       46       7.916667       0.145618
       47       7.666667       0.135414
       48       7.500000       0.137884
       49       7.666667       0.143508
       50       8.333333       0.145865
       51       7.666667       0.138007
       52       7.333333       0.132127
       53       7.166667       0.126328
       54       8.000000       0.130802
       55       7.416667       0.095164
       56       7.750000       0.158452
       57       8.000000       0.142022
       58       8.166667       0.147959
       59       8.750000       0.162660
       60       8.000000       0.150944
       61       7.500000       0.145767
       62       8.250000       0.147481
       63       7.500000       0.137869
       64       7.416667       0.134594
       65       7.416667       0.136738
       66       7.583333       0.136543
       67       7.583333       0.138684
       68       7.666667       0.138977
       69       7.833333       0.140756
       70       7.500000       0.134451
       71       7.333333       0.132327
       72       8.250000       0.143660
       73       7.583333       0.134393
       74       7.916667       0.152922
       75       7.333333       0.143386
       76       7.583333       0.148157
       77       7.416667       0.143177
       78       7.583333       0.142127
       79       7.333333       0.142385
       80       6.916667       0.135326
       81       6.000000       0.121554
       82       6.916667       0.137209
       83       7.500000       0.135140
       84       7.833333       0.150203
       85       7.416667       0.143816
       86       8.000000       0.152956
       87       7.166667       0.143008
       88       7.666667       0.152058
       89       7.833333       0.146911
       90       7.666667       0.134540
       91       7.416667       0.132386
       92       7.750000       0.139655
       93       7.583333       0.134842
       94       7.000000       0.119245
       95       7.833333       0.132704
       96       7.083333       0.125055
       97       7.500000       0.133617
       98       7.666667       0.120913
       99       7.750000       0.106593
      100       6.500000       0.092561
      101       7.166667       0.091283
      102       7.416667       0.127496
      103       8.083333       0.145258
      104       7.333333       0.146979
      105       7.750000       0.144439
      106       8.500000       0.163471
      107       7.000000       0.135324
      108       7.583333       0.154426
      109       6.833333       0.132026
      110       7.333333       0.138864
      111       6.666667       0.129003
      112       7.333333       0.143257
      113       7.250000       0.141718
      114       6.916667       0.133374
      115       6.500000       0.131108
      116       7.500000       0.147664
      117       7.583333       0.139431
      118       7.416667       0.131429
      119       7.750000       0.141059
      120       8.250000       0.149139
      121       7.833333       0.141671
      122       8.083333       0.143712
      123       8.000000       0.143451
      124       7.750000       0.142198
      125       7.250000       0.131620
      126       8.500000       0.148165
      127       6.916667       0.126474
      128       7.333333       0.133846
      129       6.833333       0.126467
      130       7.083333       0.131899
      131       6.500000       0.120848
      132       7.916667       0.143961
      133       7.666667       0.137479
      134       7.333333       0.126398
      135       6.750000       0.123573
      136       7.666667       0.136969
      137       7.666667       0.138213
      138       7.416667       0.138660
      139       8.083333       0.149502
      140       7.083333       0.132952
      141       7.583333       0.137129
      142       8.750000       0.149097
      143       7.166667       0.122793
      144       7.333333       0.124689
      145       7.083333       0.088313
      146       7.333333       0.089013
      147       7.416667       0.092338
      148       7.583333       0.090589
      149       6.333333       0.081675
      150       9.000000       0.151156
      151       8.250000       0.120933
      152       8.833333       0.117977
      153       8.500000       0.139917
      154       8.166667       0.146856
      155       7.666667       0.144401
      156       6.833333       0.129024
      157       8.083333       0.152083
      158       7.666667       0.146048
      159       7.833333       0.152702
      160       7.500000       0.141201
      161       8.250000       0.133548
      162       8.083333       0.143829
      163       8.083333       0.141025
      164       8.416667       0.146052
      165       7.750000       0.139063

[...]
       2       8.532746       0.011719
       3      13.794319       0.000000
       4      16.474568       0.000000
       5      22.156427       0.000000
       6      22.796358       0.000000
       7      28.632493       0.000000
       8      36.192230       0.000000
       9      39.842238       0.000000
      10      42.511018       0.000000
      11      47.813083       0.000000
      12      48.160388       0.000000

 134/165 kpoint (Cartesian) = 0.750000 0.750000 0.562500 (1012 pws)
       1       3.021945       0.011719
       2       6.844088       0.011719
       3      14.612047       0.000000
       4      17.655907       0.000000
       5      20.728923       0.000000
       6      20.991676       0.000000
       7      29.571654       0.000000
       8      34.630738       0.000000
       9      40.661905       0.000000
      10      44.066017       0.000000
      11      46.738687       0.000000
      12      47.266601       0.000000

 135/165 kpoint (Cartesian) = 0.750000 0.750000 0.500000 (1010 pws)
       1       3.772435       0.005859
       2       5.910004       0.005859
       3      14.991089       0.000000
       4      18.641492       0.000000
       5      19.799858       0.000000
       6      20.146559       0.000000
       7      30.060414       0.000000
       8      33.936012       0.000000
       9      41.042549       0.000000
      10      45.502701       0.000000
      11      45.797058       0.000000
      12      46.156758       0.000000

 136/165 kpoint (Cartesian) = 0.750000 0.687500 0.687500 (1009 pws)
       1       1.700762       0.011719
       2      10.694510       0.011609
       3      11.934517       0.000000
       4      15.670451       0.000000
       5      22.162178       0.000000
       6      24.839553       0.000000
       7      25.943067       0.000000
       8      35.920231       0.000000
       9      40.560845       0.000000
      10      43.169683       0.000000
      11      46.577235       0.000000
      12      50.833045       0.000000

 137/165 kpoint (Cartesian) = 0.750000 0.687500 0.625000 (1010 pws)
       1       2.748938       0.023438
       2       9.274963       0.023438
       3      12.425317       0.000000
       4      16.490332       0.000000
       5      20.270106       0.000000
       6      23.286462       0.000000
       7      26.424426       0.000000
       8      33.951251       0.000000
       9      41.632948       0.000000
      10      45.316712       0.000000
      11      48.767044       0.000000
      12      49.991567       0.000000

 138/165 kpoint (Cartesian) = 0.750000 0.687500 0.562500 (1007 pws)
       1       3.901919       0.023438
       2       7.644007       0.023438
       3      13.256677       0.000000
       4      17.437943       0.000000
       5      18.865652       0.000000
       6      21.643819       0.000000
       7      27.328693       0.000000
       8      32.391693       0.000000
       9      42.587412       0.000000
      10      46.632675       0.000000
      11      48.156991       0.000000
      12      51.017462       0.000000

 139/165 kpoint (Cartesian) = 0.750000 0.687500 0.500000 (1012 pws)
       1       4.663873       0.011719
       2       6.710538       0.011719
       3      13.677719       0.000000
       4      17.737426       0.000000
       5      18.576438       0.000000
       6      20.794754       0.000000
       7      27.808495       0.000000
       8      31.699934       0.000000
       9      43.054065       0.000000
      10      46.772768       0.000000
      11      48.269269       0.000000
      12      50.156269       0.000000

 140/165 kpoint (Cartesian) = 0.750000 0.625000 0.625000 (1002 pws)
       1       3.798376       0.011719
       2       9.673033       0.011719
       3      11.134292       0.000001
       4      17.004775       0.000000
       5      18.647367       0.000000
       6      23.821641       0.000000
       7      24.804144       0.000000
       8      31.987251       0.000000
       9      42.876071       0.000000
      10      48.361186       0.000000
      11      49.681303       0.000000
      12      49.979332       0.000000

 141/165 kpoint (Cartesian) = 0.750000 0.625000 0.562500 (1007 pws)
       1       4.959530       0.023438
       2       8.523293       0.023438
       3      11.515098       0.000000
       4      16.396258       0.000000
       5      18.763344       0.000000
       6      22.546045       0.000000
       7      25.321007       0.000000
       8      30.441111       0.000000
       9      43.979859       0.000000
      10      48.332002       0.000000
      11      50.732872       0.000000
      12      51.165258       0.000000

 142/165 kpoint (Cartesian) = 0.750000 0.625000 0.500000 (1010 pws)
       1       5.746855       0.011719
       2       7.610210       0.011719
       3      11.920479       0.000000
       4      15.823363       0.000000
       5      19.322609       0.000000
       6      21.709049       0.000000
       7      25.768151       0.000000
       8      29.762568       0.000000
       9      44.563357       0.000000
      10      47.685998       0.000000
      11      51.245776       0.000000
      12      52.220102       0.000000

 143/165 kpoint (Cartesian) = 0.750000 0.562500 0.562500 (1011 pws)
       1       6.146931       0.011719
       2       9.060049       0.011719
       3      10.176594       0.011719
       4      14.988848       0.000000
       5      19.710293       0.000000
       6      23.210428       0.000000
       7      23.840370       0.000000
       8      28.925003       0.000000
       9      45.210721       0.000000
      10      49.142005       0.000000
      11      49.640425       0.000000
      12      54.073465       0.000000

 144/165 kpoint (Cartesian) = 0.750000 0.562500 0.500000 (1012 pws)
       1       7.008112       0.011719
       2       8.456366       0.011719
       3      10.179210       0.011719
       4      14.366890       0.000000
       5      20.380847       0.000000
       6      22.584505       0.000000
       7      24.005182       0.000000
       8      28.274384       0.000000
       9      45.904010       0.000000
      10      48.548621       0.000000
      11      49.884276       0.000000
      12      54.277683       0.000000

 145/165 kpoint (Cartesian) = 0.750000 0.500000 0.500000 (1016 pws)
       1       8.163777       0.002930
       2       8.855705       0.002930
       3       8.855705       0.002930
       4      13.763972       0.000000
       5      21.151791       0.000000
       6      23.006628       0.000000
       7      23.006628       0.000000
       8      27.648075       0.000000
       9      46.711634       0.000000
      10      48.960094       0.000000
      11      48.960094       0.000000
      12      53.677195       0.000000

 146/165 kpoint (Cartesian) = 0.687500 0.687500 0.687500 (1009 pws)
       1       2.576387       0.003906
       2      11.483543       0.000000
       3      11.483543       0.000000
       4      14.773117       0.000000
       5      22.628822       0.000000
       6      22.628822       0.000000
       7      24.029687       0.000000
       8      33.676142       0.000000
       9      43.968306       0.000000
      10      43.968306       0.000000
      11      48.272833       0.000000
      12      54.723191       0.000000

 147/165 kpoint (Cartesian) = 0.687500 0.687500 0.625000 (1009 pws)
       1       3.623445       0.011719
       2      10.025491       0.011719
       3      12.364318       0.000000
       4      15.275897       0.000000
       5      20.731531       0.000000
       6      21.338249       0.000000
       7      24.210892       0.000000
       8      31.706133       0.000000
       9      44.856334       0.000000
      10      46.697596       0.000000
      11      50.715661       0.000000
      12      53.118667       0.000000

 148/165 kpoint (Cartesian) = 0.687500 0.687500 0.562500 (1012 pws)
       1       4.777914       0.011719
       2       8.440394       0.011719
       3      13.181676       0.000000
       4      16.346473       0.000000
       5      19.303928       0.000000
       6      19.587956       0.000000
       7      25.082084       0.000000
       8      30.148705       0.000000
       9      45.681931       0.000000
      10      48.665349       0.000000
      11      51.708467       0.000000
      12      51.996765       0.000000

 149/165 kpoint (Cartesian) = 0.687500 0.687500 0.500000 (1008 pws)
       1       5.549525       0.005859
       2       7.509433       0.005859
       3      13.560433       0.000000
       4      17.311440       0.000000
       5      18.400186       0.000000
       6      18.721706       0.000000
       7      25.553833       0.000000
       8      29.459669       0.000000
       9      46.066236       0.000000
      10      50.065559       0.000000
      11      50.778567       0.000000
      12      51.126421       0.000000

 150/165 kpoint (Cartesian) = 0.687500 0.625000 0.625000 (1011 pws)
       1       4.670073       0.011719
       2      10.462001       0.011719
       3      11.599788       0.000000
       4      15.510709       0.000000
       5      19.095894       0.000000
       6      21.610334       0.000000
       7      22.576460       0.000000
       8      29.740851       0.000000
       9      46.620163       0.000000
      10      49.273486       0.000000
      11      52.394375       0.000000
      12      54.016872       0.000000

 151/165 kpoint (Cartesian) = 0.687500 0.625000 0.562500 (1013 pws)
       1       5.829594       0.023438
       2       9.314608       0.023438
       3      12.075797       0.000000
       4      16.334068       0.000000
       5      17.697756       0.000000
       6      20.332929       0.000000
       7      23.076162       0.000000
       8      28.195350       0.000000
       9      47.694253       0.000000
      10      51.425074       0.000000
      11      52.914159       0.000000
      12      54.600020       0.000000

 152/165 kpoint (Cartesian) = 0.687500 0.625000 0.500000 (1010 pws)
       1       6.623278       0.011719
       2       8.406390       0.011719
       3      12.461031       0.000000
       4      16.637026       0.000000
       5      17.396373       0.000000
       6      19.491277       0.000000
       7      23.519076       0.000000
       8      27.517959       0.000000
       9      48.192283       0.000000
      10      51.849145       0.000000
      11      52.965265       0.000000
      12      55.313416       0.000000

 153/165 kpoint (Cartesian) = 0.687500 0.562500 0.562500 (1015 pws)
       1       7.009297       0.011719
       2       9.848981       0.011719
       3      10.897198       0.003629
       4      15.745995       0.000000
       5      17.673136       0.000000
       6      20.998888       0.000000
       7      21.594809       0.000000
       8      26.676516       0.000000
       9      49.034742       0.000000
      10      53.204519       0.000000
      11      53.637104       0.000000
      12      54.969729       0.000000

 154/165 kpoint (Cartesian) = 0.687500 0.562500 0.500000 (1014 pws)
       1       7.869815       0.011719
       2       9.248347       0.011719
       3      10.921323       0.002364
       4      15.187507       0.000000
       5      18.248385       0.000000
       6      20.369296       0.000000
       7      21.771754       0.000000
       8      26.024035       0.000000
       9      49.696421       0.000000
      10      52.707854       0.000000
      11      53.958545       0.000000
      12      56.467468       0.000000

 155/165 kpoint (Cartesian) = 0.687500 0.500000 0.500000 (1008 pws)
       1       9.019261       0.002930
       2       9.644626       0.002930
       3       9.644626       0.002930
       4      14.588097       0.000000
       5      18.955742       0.000000
       6      20.795023       0.000000
       7      20.795023       0.000000
       8      25.393548       0.000000
       9      50.482730       0.000000
      10      53.114543       0.000000
      11      53.114543       0.000000
      12      57.853207       0.000000

 156/165 kpoint (Cartesian) = 0.625000 0.625000 0.625000 (1015 pws)
       1       5.713238       0.003906
       2      11.342645       0.000000
       3      11.342645       0.000000
       4      14.853465       0.000000
       5      19.712792       0.000000
       6      19.712792       0.000000
       7      20.795419       0.000000
       8      27.778283       0.000000
       9      50.182189       0.000000
      10      50.182189       0.000000
      11      54.548403       0.000000
      12      58.112279       0.000000

 157/165 kpoint (Cartesian) = 0.625000 0.625000 0.562500 (1015 pws)
       1       6.871955       0.011719
       2      10.183930       0.011719
       3      12.159768       0.000000
       4      15.477926       0.000000
       5      18.285219       0.000000
       6      18.542129       0.000000
       7      21.077367       0.000000
       8      26.240501       0.000000
       9      51.019083       0.000000
      10      53.081741       0.000000
      11      56.660082       0.000000
      12      56.957903       0.000000

 158/165 kpoint (Cartesian) = 0.625000 0.625000 0.500000 (1018 pws)
       1       7.681202       0.005859
       2       9.298857       0.005859
       3      12.538343       0.000000
       4      16.297111       0.000000
       5      17.441222       0.000000
       6      17.703113       0.000000
       7      21.503585       0.000000
       8      25.570673       0.000000
       9      51.409247       0.000000
      10      54.722963       0.000000
      11      56.031615       0.000000
      12      56.382770       0.000000

 159/165 kpoint (Cartesian) = 0.625000 0.562500 0.562500 (1020 pws)
       1       8.038666       0.011719
       2      10.729551       0.011349
       3      11.538403       0.000000
       4      15.743682       0.000000
       5      16.963614       0.000000
       6      19.101251       0.000000
       7      19.588635       0.000000
       8      24.721101       0.000000
       9      52.873777       0.000000
      10      55.577501       0.000000
      11      57.720507       0.000000
      12      57.839410       0.000000

 160/165 kpoint (Cartesian) = 0.625000 0.562500 0.500000 (1022 pws)
       1       8.899302       0.011719
       2      10.133898       0.011719
       3      11.650856       0.000000
       4      16.120572       0.000000
       5      16.477397       0.000000
       6      18.467056       0.000000
       7      19.802042       0.000000
       8      24.068650       0.000000
       9      53.499115       0.000000
      10      57.039073       0.000000
      11      57.435920       0.000000
      12      58.238033       0.000000

 161/165 kpoint (Cartesian) = 0.625000 0.500000 0.500000 (1016 pws)
       1      10.028856       0.002930
       2      10.525172       0.002930
       3      10.525172       0.002930
       4      15.527654       0.000000
       5      16.980895       0.000000
       6      18.897361       0.000000
       7      18.897361       0.000000
       8      23.432030       0.000000
       9      54.335957       0.000000
      10      57.437562       0.000000
      11      57.437562       0.000000
      12      59.689266       0.000000

 162/165 kpoint (Cartesian) = 0.562500 0.562500 0.562500 (1016 pws)
       1       9.185400       0.003906
       2      11.546542       0.000000
       3      11.546542       0.000000
       4      15.201605       0.000000
       5      17.673717       0.000000
       6      17.673717       0.000000
       7      17.978290       0.000000
       8      23.203894       0.000000
       9      56.478334       0.000000
      10      56.478334       0.000000
      11      61.161512       0.000000
      12      62.113832       0.000000

 163/165 kpoint (Cartesian) = 0.562500 0.562500 0.500000 (1016 pws)
       1      10.054851       0.005859
       2      10.958383       0.000513
       3      11.925018       0.000000
       4      15.444622       0.000000
       5      16.962019       0.000000
       6      17.091682       0.000000
       7      18.213299       0.000000
       8      22.554291       0.000000
       9      56.878168       0.000000
      10      58.719962       0.000000
      11      61.168709       0.000000
      12      61.748065       0.000000

 164/165 kpoint (Cartesian) = 0.562500 0.500000 0.500000 (1016 pws)
       1      11.095808       0.000001
       2      11.342121       0.000000
       3      11.342121       0.000000
       4      15.332336       0.000000
       5      16.438357       0.000000
       6      17.469842       0.000000
       7      17.469842       0.000000
       8      21.908061       0.000000
       9      58.131406       0.000000
      10      60.420565       0.000000
      11      61.770587       0.000000
      12      61.770587       0.000000

 165/165 kpoint (Cartesian) = 0.500000 0.500000 0.500000 (1064 pws)
       1      11.720563       0.000000
       2      11.720563       0.000000
       3      11.720563       0.000000
       4      14.513350       0.000000
       5      16.887830       0.000000
       6      16.887830       0.000000
       7      16.887830       0.000000
       8      21.254150       0.000000
       9      60.742862       0.000000
      10      60.742862       0.000000
      11      63.988670       0.000000
      12      63.988670       0.000000



 --------------------------------------------
 !FINAL_ETOT_IS -109.2945763583125114 eV
 --------------------------------------------






  |CLASS_NAME---------|NAME---------------|TIME(Sec)-----|CALLS----|AVG------|PER%-------
                                      total         76.012        17      4.47    100.00%
                 Run_pw     plane_wave_line          75.96         1     75.96     99.93%
               PW_Basis              gen_pw           0.11         1      0.11      0.15%
                Cell_PW        opt_cells_pw          75.57         1     75.57     99.42%
                    FFT               FFT3D          47.37    113174      0.00     62.32%
               wavefunc             wfcinit           4.15         1      4.15      5.46%
              Hamilt_PW      diagH_subspace          12.05       825      0.01     15.85%
              Hamilt_PW               h_psi          57.75     42550      0.00     75.98%
              Hamilt_PW                vloc          56.89     42550      0.00     74.85%
                 Hamilt        diagH_LAPACK           0.34       825      0.00      0.44%
                   Ions         opt_ions_pw          71.24         1     71.24     93.72%
              Electrons     self_consistent          71.24         1     71.24     93.72%
              Electrons             c_bands          36.63         3     12.21     48.18%
                 Hamilt            diagH_pw          65.07       825      0.08     85.60%
               Diago_CG                diag          55.94       825      0.07     73.59%
              electrons             c_bands          26.91         3      8.97     35.40%
                 Charge            sum_band           5.38         5      1.08      7.08%
 ----------------------------------------------------------------------------------------

 CLASS_NAME---------|NAME---------------|MEMORY(MB)--------
                                         38.6415
             wavefunc                 evc        32.1460
         Charge_Pulay                Rrho         1.2014
         Charge_Pulay               dRrho         1.0512
         Charge_Pulay                drho         1.0512
 ----------------------------------------------------------

 Start  Time  : Fri Sep 10 11:36:16 2021
 Finish Time  : Fri Sep 10 11:37:32 2021
 Total  Time  : 0 h 1 mins 16 secs 
