 *********************************************************
 *                                                       *
 *                  WELCOME TO ABACUS v3.0               *
 *                                                       *
 *            'Atomic-orbital Based Ab-initio            *
 *                  Computation at UStc'                 *
 *                                                       *
 *          Website: http://abacus.ustc.edu.cn/          *
 *                                                       *
 *********************************************************
 Wed Dec 28 12:34:47 2022
 MAKE THE DIR         : OUT.blpstest/
Notice: symbol 'Li_locpsp' is not an element symbol!!!! set the covalent radius to be 0.
 UNIFORM GRID DIM     : 40 * 40 * 40
 UNIFORM GRID DIM(BIG): 40 * 40 * 40
func,idXC_GGA_X_PBE 101
func,idXC_GGA_C_PBE 130
 DONE(0.303502   SEC) : SETUP UNITCELL
 DONE(0.368146   SEC) : SYMMETRY
 DONE(0.723086   SEC) : INIT K-POINTS
 ---------------------------------------------------------
 Self-consistent calculations for electrons
 ---------------------------------------------------------
 SPIN    KPOINTS         PROCESSORS  
 1       256             1           
 ---------------------------------------------------------
 Use plane wave basis
 ---------------------------------------------------------
 ELEMENT NATOM       XC          
 Li      2           
 ---------------------------------------------------------
 Initial plane wave basis and FFT box
 ---------------------------------------------------------
 DONE(0.904029   SEC) : INIT PLANEWAVE
 MEMORY FOR PSI (MB)  : 47.9297
 DONE(0.943145   SEC) : LOCAL POTENTIAL
 DONE(0.943201   SEC) : NON-LOCAL POTENTIAL
 DONE(0.943321   SEC) : INIT BASIS
 START CHARGE      : atomic
 DONE(1.10234    SEC) : INIT SCF
 ITER   ETOT(eV)       EDIFF(eV)      DRHO       TIME(s)    
 CG1    -1.385001e+01  0.000000e+00   1.743e-02  3.813e+01  
 CG2    -1.403567e+01  -1.856586e-01  2.025e-03  7.805e+00  
 CG3    -1.403767e+01  -1.995118e-03  2.203e-05  9.025e+00  
 CG4    -1.403778e+01  -1.121860e-04  1.138e-05  1.477e+01  
 CG5    -1.403778e+01  -1.971911e-06  3.956e-06  7.808e+00  
 CG6    -1.403778e+01  -1.443714e-07  1.648e-07  8.025e+00  
 CG7    -1.403778e+01  -4.221634e-08  1.380e-08  1.034e+01  
 CG8    -1.403778e+01  -4.679948e-09  1.611e-11  9.504e+00  

  |CLASS_NAME---------|NAME---------------|TIME(Sec)-----|CALLS----|AVG------|PER%-------
                       total               106.53         17        6.3       1e+02     %
   Driver              driver_line         106.51         1         1.1e+02   1e+02     %
   PW_Basis            setuptransform      0.26487        1         0.26      0.25      %
   PW_Basis_K          setuptransform      0.13111        1         0.13      0.12      %
   ESolver_KS_PW       Run                 105.58         1         1.1e+02   99        %
   Potential           init_pot            0.12166        1         0.12      0.11      %
   Potential           update_from_charge  0.53875        9         0.06      0.51      %
   Potential           cal_v_eff           0.535          9         0.059     0.5       %
   PW_Basis            real2recip          0.1387         90        0.0015    0.13      %
   PotXC               cal_v_eff           0.49458        9         0.055     0.46      %
   XC_Functional       v_xc                65.376         5         13        61        %
   XC_Functional       v_xc_libxc          0.49138        9         0.055     0.46      %
   HSolverPW           solve               104.9          9         12        98        %
   DiagoIterAssist     diagH_subspace      20.574         2048      0.01      19        %
   OperatorPW          hPsi                98.056         40553     0.0024    92        %
   Operator            EkineticPW          0.26818        40553     6.6e-06   0.25      %
   Operator            VeffPW              97.63          40553     0.0024    92        %
   PW_Basis_K          recip2real          52.039         51409     0.001     49        %
   PW_Basis_K          gathers_scatterp    4.3482         51409     8.5e-05   4.1       %
   PW_Basis_K          real2recip          42.011         48745     0.00086   39        %
   PW_Basis_K          gatherp_scatters    0.8546         48745     1.8e-05   0.8       %
   DiagoCG             diag_once           81.059         2304      0.035     76        %
   ElecStatePW         psiToRho            2.5098         9         0.28      2.4       %
 ----------------------------------------------------------------------------------------

 START  Time  : Wed Dec 28 12:34:47 2022
 FINISH Time  : Wed Dec 28 12:36:33 2022
 TOTAL  Time  : 1.1e+02
 SEE INFORMATION IN : OUT.blpstest/
