 *********************************************************
 *                                                       *
 *                  WELCOME TO ABACUS v3.0               *
 *                                                       *
 *            'Atomic-orbital Based Ab-initio            *
 *                  Computation at UStc'                 *
 *                                                       *
 *          Website: http://abacus.ustc.edu.cn/          *
 *                                                       *
 *********************************************************
 Wed Dec 28 12:39:57 2022
 MAKE THE DIR         : OUT.blpstest/
Notice: symbol 'mg_locpsp' is not an element symbol!!!! set the covalent radius to be 0.
 UNIFORM GRID DIM     : 25 * 25 * 25
 UNIFORM GRID DIM(BIG): 25 * 25 * 25
func,idXC_GGA_X_PBE 101
func,idXC_GGA_C_PBE 130
 DONE(0.138112   SEC) : SETUP UNITCELL
 DONE(0.23548    SEC) : SYMMETRY
 DONE(0.669285   SEC) : INIT K-POINTS
 ---------------------------------------------------------
 Self-consistent calculations for electrons
 ---------------------------------------------------------
 SPIN    KPOINTS         PROCESSORS  
 1       286             1           
 ---------------------------------------------------------
 Use plane wave basis
 ---------------------------------------------------------
 ELEMENT NATOM       XC          
 Mg      1           
 ---------------------------------------------------------
 Initial plane wave basis and FFT box
 ---------------------------------------------------------
 DONE(0.770227   SEC) : INIT PLANEWAVE
 MEMORY FOR PSI (MB)  : 25.9746
 DONE(0.78647    SEC) : LOCAL POTENTIAL
 DONE(0.78686    SEC) : NON-LOCAL POTENTIAL
 DONE(0.78742    SEC) : INIT BASIS
 START CHARGE      : atomic
 DONE(0.836194   SEC) : INIT SCF
 ITER   ETOT(eV)       EDIFF(eV)      DRHO       TIME(s)    
 CG1    -2.323686e+01  0.000000e+00   4.751e-02  1.568e+01  
 CG2    -2.341664e+01  -1.797752e-01  4.037e-03  5.552e+00  
 CG3    -2.342155e+01  -4.907932e-03  2.533e-05  7.360e+00  
 CG4    -2.342179e+01  -2.404242e-04  4.147e-07  9.583e+00  
 CG5    -2.342180e+01  -8.364175e-06  1.035e-08  7.074e+00  
 CG6    -2.342180e+01  -1.660015e-07  1.761e-09  5.859e+00  
 CG7    -2.342180e+01  -1.338024e-09  7.232e-11  2.638e+00  

  |CLASS_NAME---------|NAME---------------|TIME(Sec)-----|CALLS----|AVG------|PER%-------
                       total               54.601         17        3.2       1e+02     %
   Driver              driver_line         54.571         1         55        1e+02     %
   ESolver_KS_PW       Run                 53.805         1         54        99        %
   Potential           update_from_charge  0.17516        8         0.022     0.32      %
   Potential           cal_v_eff           0.1738         8         0.022     0.32      %
   PotXC               cal_v_eff           0.16032        8         0.02      0.29      %
   XC_Functional       v_xc                32.754         4         8.2       60        %
   XC_Functional       v_xc_libxc          0.15951        8         0.02      0.29      %
   HSolverPW           solve               53.559         7         7.7       98        %
   DiagoIterAssist     diagH_subspace      10.299         2002      0.0051    19        %
   OperatorPW          hPsi                47.587         46623     0.001     87        %
   Operator            EkineticPW          0.3422         46623     7.3e-06   0.63      %
   Operator            VeffPW              46.985         46623     0.001     86        %
   PW_Basis_K          recip2real          24.332         58752     0.00041   45        %
   PW_Basis_K          gathers_scatterp    2.2142         58752     3.8e-05   4.1       %
   PW_Basis_K          real2recip          19.677         56633     0.00035   36        %
   PW_Basis_K          gatherp_scatters    0.68821        56633     1.2e-05   1.3       %
   DiagoIterAssist     LAPACK_subspace     0.1913         2002      9.6e-05   0.35      %
   DiagoCG             diag_once           41.654         2002      0.021     76        %
   ElecStatePW         psiToRho            0.89666        7         0.13      1.6       %
 ----------------------------------------------------------------------------------------

 START  Time  : Wed Dec 28 12:39:57 2022
 FINISH Time  : Wed Dec 28 12:40:51 2022
 TOTAL  Time  : 54
 SEE INFORMATION IN : OUT.blpstest/
