 *********************************************************
 *                                                       *
 *                  WELCOME TO ABACUS v3.0               *
 *                                                       *
 *            'Atomic-orbital Based Ab-initio            *
 *                  Computation at UStc'                 *
 *                                                       *
 *          Website: http://abacus.ustc.edu.cn/          *
 *                                                       *
 *********************************************************
 Mon May 15 13:19:07 2023
 MAKE THE DIR         : OUT.oftest/
Notice: symbol 'mg_locpsp' is not an element symbol!!!! set the covalent radius to be 0.
Notice: symbol 'al_locpsp' is not an element symbol!!!! set the covalent radius to be 0.
 UNIFORM GRID DIM     : 64 * 64 * 64
 UNIFORM GRID DIM(BIG): 64 * 64 * 64
func,idXC_GGA_X_PBE 101
func,idXC_GGA_C_PBE 130
 DONE(1.26725    SEC) : SETUP UNITCELL
 DONE(1.37483    SEC) : SYMMETRY
 DONE(1.37507    SEC) : INIT K-POINTS
 ---------------------------------------------------------
 Self-consistent calculations for electrons
 ---------------------------------------------------------
 SPIN    KPOINTS         PROCESSORS  
 1       1               1           
 ---------------------------------------------------------
 Use plane wave basis
 ---------------------------------------------------------
 ELEMENT NATOM       XC          
 Mg      4           
 Al      12          
 ---------------------------------------------------------
 Initial plane wave basis and FFT box
 ---------------------------------------------------------
 DONE(4.34758    SEC) : INIT BASIS
 DONE(4.34764    SEC) : INIT PHI
 DONE(4.84086    SEC) : LOCAL POTENTIAL
 DONE(4.84093    SEC) : NON-LOCAL POTENTIAL
 START CHARGE      : atomic
 DONE(6.78617    SEC) : INIT POTENTIAL
 DONE(6.79062    SEC) : INIT OPTIMIZATION
Default type: double
 DONE(6.8102     SEC) : INIT KEDF
======================== Running OFDFT ========================
Iter        Etot(Ha)          Theta      PotNorm     deltaE(Ha)
0     -2.719922635440e+01   2.000e-01   1.915e-01   -2.720e+01  
1     -2.870108556570e+01   1.257e-01   1.289e-01   -1.502e+00  
2     -2.876040442523e+01   1.723e-02   1.799e-02   -5.932e-02  
3     -2.876214697508e+01   3.643e-03   1.025e-02   -1.743e-03  
4     -2.876285146176e+01   3.198e-03   7.005e-04   -7.045e-04  
5     -2.876285300788e+01   7.386e-05   5.578e-05   -1.546e-06  
6     -2.876285304349e+01   2.383e-05   4.805e-06   -3.561e-08  
7     -2.876285304368e+01   1.274e-06   2.866e-06   -1.889e-10  
 ><><><><><><><><><><><><><><><><><><><><><><
 TOTAL-STRESS (KBAR):
 ><><><><><><><><><><><><><><><><><><><><><><
 -5.712e+01     1.702e-25      -4.256e-26     
 1.702e-25      -5.712e+01     -5.674e-26     
 -4.256e-26     -5.674e-26     -5.712e+01     
 TOTAL-PRESSURE: -5.712e+01 KBAR

  |CLASS_NAME---------|NAME---------------|TIME(Sec)-----|CALLS----|AVG------|PER%-------
                       total               367.67         21        18        1e+02     %
   Driver              driver_line         367.61         1         3.7e+02   1e+02     %
   PW_Basis            setuptransform      1.0679         1         1.1       0.29      %
   mymath              heapsort            0.10768        4034      2.7e-05   0.029     %
   PW_Basis            setup_struc_factor  2.9722         1         3         0.81      %
   ppcell_vl           init_vloc           0.49289        1         0.49      0.13      %
   Charge              atomic_rho          0.62072        1         0.62      0.17      %
   PW_Basis            recip2real          111.94         1957      0.057     30        %
   PW_Basis            gathers_scatterp    16.682         1957      0.0085    4.5       %
   Potential           init_pot            1.2886         1         1.3       0.35      %
   Potential           update_from_charge  204.3          150       1.4       56        %
   Potential           cal_v_eff           204.27         150       1.4       56        %
   H_Hartree_pw        v_hartree           21.645         150       0.14      5.9       %
   PW_Basis            real2recip          101.87         1952      0.052     28        %
   PW_Basis            gatherp_scatters    11.335         1952      0.0058    3.1       %
   PotXC               cal_v_eff           181.62         150       1.2       49        %
   XC_Functional       v_xc                178.81         75        2.4       49        %
   XC_Functional       v_xc_libxc          179.87         150       1.2       49        %
   ESolver_OF          Run                 351.13         1         3.5e+02   96        %
   Symmetry            rho_symmetry        0.12462        1         0.12      0.034     %
   KEDF_LKT            LKT_potential       118.54         149       0.8       32        %
   KEDF_vW             vw_potential        20.034         149       0.13      5.4       %
   Forces              cal_force_loc       2.4676         1         2.5       0.67      %
   Forces              cal_force_ew        2.3668         1         2.4       0.64      %
   OF_Stress_PW        cal_stress          4.2772         1         4.3       1.2       %
   Stress_Func         stress_ewa          2.3711         1         2.4       0.64      %
   Stress_Func         stress_gga          1.1537         1         1.2       0.31      %
   Stress_Func         stress_loc          0.71938        1         0.72      0.2       %
 ----------------------------------------------------------------------------------------

 START  Time  : Mon May 15 13:19:07 2023
 FINISH Time  : Mon May 15 13:25:14 2023
 TOTAL  Time  : 3.7e+02
 SEE INFORMATION IN : OUT.oftest/
