 *********************************************************
 *                                                       *
 *                  WELCOME TO ABACUS v3.0               *
 *                                                       *
 *            'Atomic-orbital Based Ab-initio            *
 *                  Computation at UStc'                 *
 *                                                       *
 *          Website: http://abacus.ustc.edu.cn/          *
 *                                                       *
 *********************************************************
 Mon Jul 24 15:06:11 2023
 MAKE THE DIR         : OUT.blpstest/
Notice: symbol 'In_locpsp' is not an element symbol!!!! set the covalent radius to be 0.
Notice: symbol 'As_locpsp' is not an element symbol!!!! set the covalent radius to be 0.
 UNIFORM GRID DIM     : 40 * 40 * 40
 UNIFORM GRID DIM(BIG): 40 * 40 * 40
func,idXC_GGA_X_PBE 101
func,idXC_GGA_C_PBE 130
 DONE(0.213524   SEC) : SETUP UNITCELL
 DONE(0.246796   SEC) : SYMMETRY
 DONE(0.41841    SEC) : INIT K-POINTS
 ---------------------------------------------------------
 Self-consistent calculations for electrons
 ---------------------------------------------------------
 SPIN    KPOINTS         PROCESSORS  
 1       256             1           
 ---------------------------------------------------------
 Use plane wave basis
 ---------------------------------------------------------
 ELEMENT NATOM       XC          
 In      1           
 As      1           
 ---------------------------------------------------------
 Initial plane wave basis and FFT box
 ---------------------------------------------------------
 DONE(0.52289    SEC) : INIT PLANEWAVE
 MEMORY FOR PSI (MB)  : 77.3438
 DONE(0.56145    SEC) : LOCAL POTENTIAL
 DONE(0.561484   SEC) : NON-LOCAL POTENTIAL
 DONE(0.561543   SEC) : INIT BASIS
 START CHARGE      : atomic
 DONE(0.649168   SEC) : INIT SCF
 ITER   ETOT(eV)       EDIFF(eV)      DRHO       TIME(s)    
 CG1    -2.173375e+02  0.000000e+00   2.410e+00  4.550e+01  
 CG2    -2.235691e+02  -6.231610e+00  1.330e-01  3.866e+01  
 CG3    -2.239745e+02  -4.053656e-01  5.981e-03  5.487e+01  
 CG4    -2.239842e+02  -9.741510e-03  1.964e-04  3.710e+01  
 CG5    -2.239852e+02  -9.673263e-04  7.880e-06  5.598e+01  
 CG6    -2.239852e+02  -2.007393e-05  4.070e-08  5.431e+01  
 CG7    -2.239852e+02  -5.297986e-07  5.598e-09  6.788e+01  
 CG8    -2.239852e+02  -1.963146e-08  1.328e-09  5.117e+01  
 CG9    -2.239852e+02  -2.050269e-09  2.027e-11  4.089e+01  

  |CLASS_NAME---------|NAME---------------|TIME(Sec)-----|CALLS----|AVG------|PER%-------
                       total               447.07         17        26        1e+02     %
   Driver              driver_line         447.06         1         4.5e+02   1e+02     %
   PW_Basis            setuptransform      0.19058        1         0.19      0.043     %
   ESolver_KS_PW       Run                 446.48         1         4.5e+02   1e+02     %
   PW_Basis            recip2real          0.19707        62        0.0032    0.044     %
   Potential           update_from_charge  1.1185         10        0.11      0.25      %
   Potential           cal_v_eff           1.117          10        0.11      0.25      %
   PW_Basis            real2recip          0.31073        98        0.0032    0.07      %
   PotXC               cal_v_eff           1.0239         10        0.1       0.23      %
   XC_Functional       v_xc                265.17         5         53        59        %
   XC_Functional       v_xc_libxc          1.0157         10        0.1       0.23      %
   HSolverPW           solve               445.03         9         49        1e+02     %
   DiagoIterAssist     diagH_subspace      89.697         2304      0.039     20        %
   OperatorPW          hPsi                398.86         80321     0.005     89        %
   Operator            EkineticPW          1.5709         80321     2e-05     0.35      %
   Operator            VeffPW              396.38         80321     0.0049    89        %
   PW_Basis_K          recip2real          204.91         107969    0.0019    46        %
   PW_Basis_K          gathers_scatterp    23.867         107969    0.00022   5.3       %
   PW_Basis_K          real2recip          160.13         98753     0.0016    36        %
   PW_Basis_K          gatherp_scatters    7.3097         98753     7.4e-05   1.6       %
   Operator            NonlocalPW          0.12118        80321     1.5e-06   0.027     %
   DiagoIterAssist     LAPACK_subspace     0.43609        2304      0.00019   0.098     %
   DiagoCG             diag_once           329.49         2304      0.14      74        %
   ElecStatePW         psiToRho            24.702         9         2.7       5.5       %
   Charge              mix_rho             0.13625        8         0.017     0.03      %
 ----------------------------------------------------------------------------------------

 START  Time  : Mon Jul 24 15:06:11 2023
 FINISH Time  : Mon Jul 24 15:13:38 2023
 TOTAL  Time  : 4.5e+02
 SEE INFORMATION IN : OUT.blpstest/
