 *********************************************************
 *                                                       *
 *                  WELCOME TO ABACUS v3.0               *
 *                                                       *
 *            'Atomic-orbital Based Ab-initio            *
 *                  Computation at UStc'                 *
 *                                                       *
 *          Website: http://abacus.ustc.edu.cn/          *
 *                                                       *
 *********************************************************
 Wed Apr 26 05:32:37 2023
 MAKE THE DIR         : OUT.oftest/
Notice: symbol 'mg_locpsp' is not an element symbol!!!! set the covalent radius to be 0.
 UNIFORM GRID DIM     : 27 * 27 * 27
 UNIFORM GRID DIM(BIG): 27 * 27 * 27
func,idXC_GGA_X_PBE 101
func,idXC_GGA_C_PBE 130
 DONE(0.114568   SEC) : SETUP UNITCELL
 DONE(0.16929    SEC) : SYMMETRY
 DONE(0.169571   SEC) : INIT K-POINTS
 ---------------------------------------------------------
 Self-consistent calculations for electrons
 ---------------------------------------------------------
 SPIN    KPOINTS         PROCESSORS  
 1       1               1           
 ---------------------------------------------------------
 Use plane wave basis
 ---------------------------------------------------------
 ELEMENT NATOM       XC          
 Mg      1           
 ---------------------------------------------------------
 Initial plane wave basis and FFT box
 ---------------------------------------------------------
 DONE(0.170791   SEC) : INIT BASIS
 DONE(0.170817   SEC) : INIT PHI
 DONE(0.211518   SEC) : LOCAL POTENTIAL
 DONE(0.211558   SEC) : NON-LOCAL POTENTIAL
 START CHARGE      : atomic
 DONE(0.288863   SEC) : INIT POTENTIAL
 DONE(0.288929   SEC) : INIT OPTIMIZATION
Default type: double
nnode = 10
nlayer = 3
feg_net_F = 0.540933
 DONE(0.324818   SEC) : INIT KEDF
======================== Running OFDFT ========================
Iter        Etot(Ha)          Theta      PotNorm     deltaE(Ha)
0     -8.273886392415e-01   2.000e-01   1.367e-01   -8.274e-01  
1     -8.838409255521e-01   1.170e-01   1.048e-01   -5.645e-02  
2     -8.858506387030e-01   1.386e-02   4.158e-02   -2.010e-03  
3     -8.862223688433e-01   8.497e-03   2.595e-02   -3.717e-04  
4     -8.863406882320e-01   2.976e-03   1.193e-02   -1.183e-04  
5     -8.863729574620e-01   1.788e-03   1.043e-02   -3.227e-05  
6     -8.864292259982e-01   5.283e-03   9.158e-04   -5.627e-05  
7     -8.864293374412e-01   1.025e-04   7.038e-05   -1.114e-07  
8     -8.864293385999e-01   1.071e-05   3.042e-05   -1.159e-09  

  |CLASS_NAME---------|NAME---------------|TIME(Sec)-----|CALLS----|AVG------|PER%-------
                       total               172.66         21        8.2       1e+02     %
   Driver              driver_line         172.64         1         1.7e+02   1e+02     %
   PW_Basis            recip2real          3.7111         3928      0.00094   2.1       %
   PW_Basis            gathers_scatterp    0.27047        3928      6.9e-05   0.16      %
   Potential           update_from_charge  5.4033         197       0.027     3.1       %
   Potential           cal_v_eff           5.4013         197       0.027     3.1       %
   H_Hartree_pw        v_hartree           0.42731        197       0.0022    0.25      %
   PW_Basis            real2recip          3.728          3928      0.00095   2.2       %
   PW_Basis            gatherp_scatters    0.16728        3928      4.3e-05   0.097     %
   PotXC               cal_v_eff           4.9577         197       0.025     2.9       %
   XC_Functional       v_xc                85.306         99        0.86      49        %
   XC_Functional       v_xc_libxc          4.9482         197       0.025     2.9       %
   ESolver_OF          Run                 172.33         1         1.7e+02   1e+02     %
   KEDF_vW             vw_potential        0.42055        196       0.0021    0.24      %
 ----------------------------------------------------------------------------------------

 START  Time  : Wed Apr 26 05:32:37 2023
 FINISH Time  : Wed Apr 26 05:35:30 2023
 TOTAL  Time  : 1.7e+02
 SEE INFORMATION IN : OUT.oftest/
