 *********************************************************
 *                                                       *
 *                  WELCOME TO ABACUS v3.0               *
 *                                                       *
 *            'Atomic-orbital Based Ab-initio            *
 *                  Computation at UStc'                 *
 *                                                       *
 *          Website: http://abacus.ustc.edu.cn/          *
 *                                                       *
 *********************************************************
 Tue May  2 12:46:29 2023
 MAKE THE DIR         : OUT.blpstest/
Notice: symbol 'al_locpsp' is not an element symbol!!!! set the covalent radius to be 0.
 UNIFORM GRID DIM     : 27 * 27 * 27
 UNIFORM GRID DIM(BIG): 27 * 27 * 27
func,idXC_GGA_X_PBE 101
func,idXC_GGA_C_PBE 130
 DONE(0.109053   SEC) : SETUP UNITCELL
 DONE(0.162955   SEC) : SYMMETRY
 DONE(0.509602   SEC) : INIT K-POINTS
 ---------------------------------------------------------
 Self-consistent calculations for electrons
 ---------------------------------------------------------
 SPIN    KPOINTS         PROCESSORS  
 1       256             1           
 ---------------------------------------------------------
 Use plane wave basis
 ---------------------------------------------------------
 ELEMENT NATOM       XC          
 Al      1           
 ---------------------------------------------------------
 Initial plane wave basis and FFT box
 ---------------------------------------------------------
 DONE(0.51061    SEC) : INIT BASIS
 DONE(0.510639   SEC) : INIT PHI
 DONE(0.552302   SEC) : LOCAL POTENTIAL
 DONE(0.552338   SEC) : NON-LOCAL POTENTIAL
 START CHARGE      : atomic
 DONE(0.628265   SEC) : INIT POTENTIAL
 DONE(0.628377   SEC) : INIT OPTIMIZATION
Default type: double
 DONE(0.629522   SEC) : INIT KEDF
======================== Running OFDFT ========================
Iter        Etot(Ha)          Theta      PotNorm     deltaE(Ha)
0     -2.022878799569e+00   2.000e-01   1.918e-01   -2.023e+00  
1     -2.099639718077e+00   1.030e-01   1.854e-01   -7.676e-02  
2     -2.104505143639e+00   1.393e-02   5.523e-02   -4.865e-03  
3     -2.104730009365e+00   2.416e-03   1.757e-02   -2.249e-04  
4     -2.104791944537e+00   2.413e-03   1.181e-02   -6.194e-05  
5     -2.104809680103e+00   6.845e-04   3.969e-03   -1.774e-05  
6     -2.104821520859e+00   1.671e-03   3.108e-04   -1.184e-05  
7     -2.104821553012e+00   5.857e-05   1.918e-05   -3.215e-08  
8     -2.104821553144e+00   3.102e-06   1.224e-05   -1.323e-10  

  |CLASS_NAME---------|NAME---------------|TIME(Sec)-----|CALLS----|AVG------|PER%-------
                       total               13.568         21        0.65      1e+02     %
   Driver              driver_line         13.556         1         14        1e+02     %
   PW_Basis            recip2real          2.8864         2218      0.0013    21        %
   PW_Basis            gathers_scatterp    0.29615        2218      0.00013   2.2       %
   Potential           update_from_charge  7.5199         171       0.044     55        %
   Potential           cal_v_eff           7.5176         171       0.044     55        %
   H_Hartree_pw        v_hartree           0.61626        171       0.0036    4.5       %
   PW_Basis            real2recip          3.0023         2218      0.0014    22        %
   PW_Basis            gatherp_scatters    0.27438        2218      0.00012   2         %
   PotXC               cal_v_eff           6.8509         171       0.04      50        %
   XC_Functional       v_xc                6.4543         86        0.075     48        %
   XC_Functional       v_xc_libxc          6.8244         171       0.04      50        %
   ESolver_OF          Run                 12.937         1         13        95        %
   KEDF_LKT            LKT_potential       4.5092         170       0.027     33        %
   KEDF_vW             vw_potential        0.61677        170       0.0036    4.5       %
 ----------------------------------------------------------------------------------------

 START  Time  : Tue May  2 12:46:29 2023
 FINISH Time  : Tue May  2 12:46:43 2023
 TOTAL  Time  : 14
 SEE INFORMATION IN : OUT.blpstest/
