 *********************************************************
 *                                                       *
 *                  WELCOME TO ABACUS v3.0               *
 *                                                       *
 *            'Atomic-orbital Based Ab-initio            *
 *                  Computation at UStc'                 *
 *                                                       *
 *          Website: http://abacus.ustc.edu.cn/          *
 *                                                       *
 *********************************************************
 Mon Apr 17 14:42:53 2023
 MAKE THE DIR         : OUT.blpstest/
Notice: symbol 'al_locpsp' is not an element symbol!!!! set the covalent radius to be 0.
 UNIFORM GRID DIM     : 25 * 25 * 25
 UNIFORM GRID DIM(BIG): 25 * 25 * 25
func,idXC_GGA_X_PBE 101
func,idXC_GGA_C_PBE 130
 DONE(0.0861136  SEC) : SETUP UNITCELL
 DONE(0.143962   SEC) : SYMMETRY
 DONE(0.846104   SEC) : INIT K-POINTS
 ---------------------------------------------------------
 Self-consistent calculations for electrons
 ---------------------------------------------------------
 SPIN    KPOINTS         PROCESSORS  
 1       256             1           
 ---------------------------------------------------------
 Use plane wave basis
 ---------------------------------------------------------
 ELEMENT NATOM       XC          
 Al      1           
 ---------------------------------------------------------
 Initial plane wave basis and FFT box
 ---------------------------------------------------------
 DONE(0.846937   SEC) : INIT BASIS
 DONE(0.846971   SEC) : INIT PHI
 DONE(0.917212   SEC) : LOCAL POTENTIAL
 DONE(0.917255   SEC) : NON-LOCAL POTENTIAL
 START CHARGE      : atomic
 DONE(1.04107    SEC) : INIT POTENTIAL
 DONE(1.04112    SEC) : INIT OPTIMIZATION
 DONE(1.04184    SEC) : INIT KEDF
======================== Running OFDFT ========================
Iter        Etot(Ha)          Theta      PotNorm     deltaE(Ha)
0     -1.998268644302e+00   2.000e-01   2.474e-01   -1.998e+00  
1     -2.006110703853e+00   3.251e-02   3.333e-01   -7.842e-03  
2     -2.091243163825e+00   8.279e-02   1.258e-01   -8.513e-02  
3     -2.092830868049e+00   1.196e-02   1.516e-02   -1.588e-03  
4     -2.092857895605e+00   1.717e-03   1.124e-03   -2.703e-05  
5     -2.092858141373e+00   1.662e-04   9.352e-05   -2.458e-07  
6     -2.092858142753e+00   1.021e-05   2.497e-05   -1.380e-09  

  |CLASS_NAME---------|NAME---------------|TIME(Sec)-----|CALLS----|AVG------|PER%-------
                       total               12.871         21        0.61      1e+02     %
   Driver              driver_line         12.862         1         13        1e+02     %
   PW_Basis            recip2real          1.8915         1844      0.001     15        %
   PW_Basis            gathers_scatterp    0.14016        1844      7.6e-05   1.1       %
   Potential           update_from_charge  6.7107         205       0.033     52        %
   Potential           cal_v_eff           6.7093         205       0.033     52        %
   H_Hartree_pw        v_hartree           0.51758        205       0.0025    4         %
   PW_Basis            real2recip          2.3166         2252      0.001     18        %
   PW_Basis            gatherp_scatters    0.12795        2252      5.7e-05   0.99      %
   PotXC               cal_v_eff           6.1542         205       0.03      48        %
   XC_Functional       v_xc                5.7185         103       0.056     44        %
   XC_Functional       v_xc_libxc          6.1385         205       0.03      48        %
   ESolver_OF          Run                 11.829         1         12        92        %
   KEDF_TF             tf_potential        0.96824        204       0.0047    7.5       %
   KEDF_WT             wt_potential        3.4684         204       0.017     27        %
   KEDF_vW             vw_potential        0.48587        204       0.0024    3.8       %
 ----------------------------------------------------------------------------------------

 START  Time  : Mon Apr 17 14:42:53 2023
 FINISH Time  : Mon Apr 17 14:43:06 2023
 TOTAL  Time  : 13
 SEE INFORMATION IN : OUT.blpstest/
