 *********************************************************
 *                                                       *
 *                  WELCOME TO ABACUS v3.0               *
 *                                                       *
 *            'Atomic-orbital Based Ab-initio            *
 *                  Computation at UStc'                 *
 *                                                       *
 *          Website: http://abacus.ustc.edu.cn/          *
 *                                                       *
 *********************************************************
 Wed Dec 28 12:33:45 2022
 MAKE THE DIR         : OUT.blpstest/
Notice: symbol 'Li_locpsp' is not an element symbol!!!! set the covalent radius to be 0.
 UNIFORM GRID DIM     : 27 * 27 * 27
 UNIFORM GRID DIM(BIG): 27 * 27 * 27
func,idXC_GGA_X_PBE 101
func,idXC_GGA_C_PBE 130
 DONE(0.110222   SEC) : SETUP UNITCELL
 DONE(0.165051   SEC) : SYMMETRY
 DONE(0.608358   SEC) : INIT K-POINTS
 ---------------------------------------------------------
 Self-consistent calculations for electrons
 ---------------------------------------------------------
 SPIN    KPOINTS         PROCESSORS  
 1       256             1           
 ---------------------------------------------------------
 Use plane wave basis
 ---------------------------------------------------------
 ELEMENT NATOM       XC          
 Li      1           
 ---------------------------------------------------------
 Initial plane wave basis and FFT box
 ---------------------------------------------------------
 DONE(0.713398   SEC) : INIT PLANEWAVE
 MEMORY FOR PSI (MB)  : 20.6055
 DONE(0.726412   SEC) : LOCAL POTENTIAL
 DONE(0.726464   SEC) : NON-LOCAL POTENTIAL
 DONE(0.726569   SEC) : INIT BASIS
 START CHARGE      : atomic
 DONE(0.771932   SEC) : INIT SCF
 ITER   ETOT(eV)       EDIFF(eV)      DRHO       TIME(s)    
 CG1    -7.464392e+00  0.000000e+00   9.921e-03  2.335e+01  
 CG2    -7.546453e+00  -8.206191e-02  1.083e-03  5.998e+00  
 CG3    -7.546932e+00  -4.782643e-04  6.043e-08  6.948e+00  
 CG4    -7.546954e+00  -2.220829e-05  3.662e-08  1.587e+01  
 CG5    -7.546954e+00  -5.636933e-07  1.988e-09  9.852e+00  
 CG6    -7.546954e+00  -5.494053e-09  6.251e-11  9.339e+00  

  |CLASS_NAME---------|NAME---------------|TIME(Sec)-----|CALLS----|AVG------|PER%-------
                       total               72.146         17        4.2       1e+02     %
   Driver              driver_line         72.132         1         72        1e+02     %
   ESolver_KS_PW       Run                 71.412         1         71        99        %
   Potential           update_from_charge  0.20074        7         0.029     0.28      %
   Potential           cal_v_eff           0.19963        7         0.029     0.28      %
   PotXC               cal_v_eff           0.18285        7         0.026     0.25      %
   XC_Functional       v_xc                40.153         4         10        56        %
   XC_Functional       v_xc_libxc          0.18248        7         0.026     0.25      %
   HSolverPW           solve               71.141         7         10        99        %
   DiagoIterAssist     diagH_subspace      12.14          1536      0.0079    17        %
   OperatorPW          hPsi                66.934         38132     0.0018    93        %
   Operator            EkineticPW          0.22705        38132     6e-06     0.31      %
   Operator            VeffPW              66.504         38132     0.0017    92        %
   PW_Basis_K          recip2real          33.377         45269     0.00074   46        %
   PW_Basis_K          gathers_scatterp    2.2303         45269     4.9e-05   3.1       %
   PW_Basis_K          real2recip          30.911         44276     0.0007    43        %
   PW_Basis_K          gatherp_scatters    0.79757        44276     1.8e-05   1.1       %
   DiagoIterAssist     LAPACK_subspace     0.10453        1536      6.8e-05   0.14      %
   DiagoCG             diag_once           57.539         1792      0.032     80        %
   ElecStatePW         psiToRho            0.77207        7         0.11      1.1       %
 ----------------------------------------------------------------------------------------

 START  Time  : Wed Dec 28 12:33:45 2022
 FINISH Time  : Wed Dec 28 12:34:57 2022
 TOTAL  Time  : 72
 SEE INFORMATION IN : OUT.blpstest/
