                                                                                     
                             WELCOME TO ABACUS v3.0                                  
                                                                                     
               'Atomic-orbital Based Ab-initio Computation at UStc'                  
                                                                                     
                     Website: http://abacus.ustc.edu.cn/                             
                                                                                     
    Version: Parallel, in development
    Processor Number is 1
    Start Time is Wed Dec 28 12:42:27 2022
                                                                                     
 ------------------------------------------------------------------------------------

 READING GENERAL INFORMATION
                           global_out_dir = OUT.blpstest/
                           global_in_card = INPUT
                               pseudo_dir = 
                              orbital_dir = 
                                    DRANK = 1
                                    DSIZE = 1
                                   DCOLOR = 1
                                    GRANK = 1
                                    GSIZE = 1
 The esolver type has been set to : ksdft_pw




 >>>>>>>>>>>>>>>>>>>>>>>>>>>>>>>>>>>>>>>>>>>>>>>>>>>>>>>>>>>>>>>>>>>>>>
 |                                                                    |
 | Reading atom information in unitcell:                              |
 | From the input file and the structure file we know the number of   |
 | different elments in this unitcell, then we list the detail        |
 | information for each element, especially the zeta and polar atomic |
 | orbital number for each element. The total atom number is counted. |
 | We calculate the nearest atom distance for each atom and show the  |
 | Cartesian and Direct coordinates for each atom. We list the file   |
 | address for atomic orbitals. The volume and the lattice vectors    |
 | in real and reciprocal space is also shown.                        |
 |                                                                    |
 <<<<<<<<<<<<<<<<<<<<<<<<<<<<<<<<<<<<<<<<<<<<<<<<<<<<<<<<<<<<<<<<<<<<<<




 READING UNITCELL INFORMATION
                                    ntype = 1
                 atom label for species 1 = Mg
                  lattice constant (Bohr) = 6.0074
              lattice constant (Angstrom) = 3.17898

 READING ATOM TYPE 1
                               atom label = Mg
                      L=0, number of zeta = 1
                      L=1, number of zeta = 1
                      L=2, number of zeta = 1
             number of atom for this type = 2
                      start magnetization = FALSE
                      start magnetization = FALSE

                        TOTAL ATOM NUMBER = 2

 DIRECT COORDINATES
         atom                   x                   y                   z                 mag                  vx                  vy                  vz
     taud_Mg1                   0                   0                   0                   0                   0                   0                   0
     taud_Mg2            0.666667            0.333333                 0.5                   0                   0                   0                   0


                          Volume (Bohr^3) = 307.058
                             Volume (A^3) = 45.5013

 Lattice vectors: (Cartesian coordinate: in unit of a_0)
                   +1                  +0                  +0
                 -0.5           +0.866025                  +0
                   +0                  +0            +1.63542
 Reciprocal vectors: (Cartesian coordinate: in unit of 2 pi/a_0)
                   +1            +0.57735                  -0
                   -0             +1.1547                  -0
                   +0                  -0           +0.611463




 >>>>>>>>>>>>>>>>>>>>>>>>>>>>>>>>>>>>>>>>>>>>>>>>>>>>>>>>>>>>>>>>>>>>>>
 |                                                                    |
 | Reading pseudopotentials files:                                    |
 | The pseudopotential file is in UPF format. The 'NC' indicates that |
 | the type of pseudopotential is 'norm conserving'. Functional of    |
 | exchange and correlation is decided by 4 given parameters in UPF   |
 | file.  We also read in the 'core correction' if there exists.      |
 | Also we can read the valence electrons number and the maximal      |
 | angular momentum used in this pseudopotential. We also read in the |
 | trail wave function, trail atomic density and local-pseudopotential|
 | on logrithmic grid. The non-local pseudopotential projector is also|
 | read in if there is any.                                           |
 |                                                                    |
 <<<<<<<<<<<<<<<<<<<<<<<<<<<<<<<<<<<<<<<<<<<<<<<<<<<<<<<<<<<<<<<<<<<<<<




                PAO radial cut off (Bohr) = 16

 Read in pseudopotential file is mg.gga.psp
                     pseudopotential type = 
          exchange-correlation functional = XC_GGA_X_PBE+XC_GGA_C_PBE
                 nonlocal core correction = 0
                        valence electrons = 2
                                     lmax = 0
                           number of zeta = 0
                     number of projectors = 0
Notice: symbol 'mg_locpsp' is not an element symbol!!!! set the covalent radius to be 0.
     initial pseudo atomic orbital number = 0
                                   NLOCAL = 18




 >>>>>>>>>>>>>>>>>>>>>>>>>>>>>>>>>>>>>>>>>>>>>>>>>>>>>>>>>>>>>>>>>>>>>>
 |                                                                    |
 | Setup plane waves of charge/potential:                             |
 | Use the energy cutoff and the lattice vectors to generate the      |
 | dimensions of FFT grid. The number of FFT grid on each processor   |
 | is 'nrxx'. The number of plane wave basis in reciprocal space is   |
 | different for charege/potential and wave functions. We also set    |
 | the 'sticks' for the parallel of FFT. The number of plane waves    |
 | is 'npw' in each processor.                                        |
 <<<<<<<<<<<<<<<<<<<<<<<<<<<<<<<<<<<<<<<<<<<<<<<<<<<<<<<<<<<<<<<<<<<<<<





 SETUP THE PLANE WAVE BASIS
 energy cutoff for charge/potential (unit:Ry) = 240
          [fft grid for charge/potential] = 30, 30, 50
                      [fft grid division] = 1, 1, 1
      [big fft grid for charge/potential] = 30, 30, 50
                                     nbxx = 45000
                                     nrxx = 45000

 SETUP PLANE WAVES FOR CHARGE/POTENTIAL
                    number of plane waves = 19327
                         number of sticks = 595

 PARALLEL PW FOR CHARGE/POTENTIAL
     PROC   COLUMNS(POT)             PW
        1            595          19327
 --------------- sum -------------------
        1            595          19327
                            number of |g| = 982
                                  max |g| = 219.359
                                  min |g| = 0

 SETUP THE ELECTRONS NUMBER
            electron number of element Mg = 2
      total electron number of element Mg = 4
            AUTOSET number of electrons:  = 4
 DONE : SETUP UNITCELL Time : 0.180282 (SEC)





 >>>>>>>>>>>>>>>>>>>>>>>>>>>>>>>>>>>>>>>>>>>>>>>>>>>>>>>>>>>>>>>>>>>>>>
 |                                                                    |
 | Doing symmetry analysis:                                           |
 | We calculate the norm of 3 vectors and the angles between them,    |
 | the type of Bravais lattice is given. We can judge if the unticell |
 | is a primitive cell. Finally we give the point group operation for |
 | this unitcell. We we use the point group operations to do symmetry |
 | analysis on given k-point mesh and the charge density.             |
 |                                                                    |
 <<<<<<<<<<<<<<<<<<<<<<<<<<<<<<<<<<<<<<<<<<<<<<<<<<<<<<<<<<<<<<<<<<<<<<




 LATTICE VECTORS: (CARTESIAN COORDINATE: IN UNIT OF A0)
                   +1                  +0                  +0
                 -0.5           +0.866025                  +0
                   +0                  +0            +1.63542
                       right hand lattice = 1
                                   NORM_A = 1
                                   NORM_B = 1
                                   NORM_C = 1.63542
                           ALPHA (DEGREE) = 120
                           BETA  (DEGREE) = 90
                           GAMMA (DEGREE) = 90
                             BRAVAIS TYPE = 4
                     BRAVAIS LATTICE NAME = 04. Hexagonal cell
                                    IBRAV = 4
                                  BRAVAIS = HEXAGONAL CELL
                       LATTICE CONSTANT A = 1
                                C/A RATIO = 1.63542
                                    ibrav = 4
                        ROTATION MATRICES = 24
              PURE POINT GROUP OPERATIONS = 24
                   SPACE GROUP OPERATIONS = 24
                                       C2 = 7
                                       C3 = 2
                                       C4 = 0
                                       C6 = 2
                                       S1 = 7
                                       S3 = 2
                                       S4 = 0
                                       S6 = 2
                              POINT GROUP = D_6h
Warning : If the optimal symmetric configuration is not the input configuration, 
you have to manually change configurations, ABACUS would only calculate the input structure.
 DONE : SYMMETRY Time : 0.23576 (SEC)





 >>>>>>>>>>>>>>>>>>>>>>>>>>>>>>>>>>>>>>>>>>>>>>>>>>>>>>>>>>>>>>>>>>>>>>
 |                                                                    |
 | Setup K-points                                                     |
 | We setup the k-points according to input parameters.               |
 | The reduced k-points are set according to symmetry operations.     |
 | We treat the spin as another set of k-points.                      |
 |                                                                    |
 <<<<<<<<<<<<<<<<<<<<<<<<<<<<<<<<<<<<<<<<<<<<<<<<<<<<<<<<<<<<<<<<<<<<<<





 SETUP K-POINTS
                                    nspin = 1
                   Input type of k points = Monkhorst-Pack(Gamma)
                                   nkstot = 1728
                               nkstot_ibz = 133
      IBZ             DirectX             DirectY             DirectZ              Weight    ibz2bz
        1                   0                   0                   0         0.000578704         0
        2            0.916667           0.0833333                   0          0.00347222         1
        3            0.833333            0.166667                   0          0.00347222         2
        4                0.75                0.25                   0          0.00347222         3
        5            0.666667            0.333333                   0          0.00347222         4
        6            0.583333            0.416667                   0          0.00347222         5
        7                 0.5                 0.5                   0          0.00173611         6
        8            0.916667            0.916667                   0          0.00347222        13
        9            0.916667            0.833333                   0          0.00694444        14
       10            0.916667                0.75                   0          0.00694444        15
       11            0.916667            0.666667                   0          0.00694444        16
       12            0.916667            0.583333                   0          0.00694444        17
       13            0.833333            0.833333                   0          0.00347222        26
       14            0.833333                0.75                   0          0.00694444        27
       15            0.833333            0.666667                   0          0.00694444        28
       16            0.833333            0.583333                   0          0.00347222        29
       17                0.75                0.75                   0          0.00347222        39
       18                0.75            0.666667                   0          0.00694444        40
       19            0.666667            0.666667                   0          0.00115741        52
       20                   0                   0            0.916667          0.00115741       144
       21            0.916667           0.0833333            0.916667          0.00694444       145
       22            0.833333            0.166667            0.916667          0.00694444       146
       23                0.75                0.25            0.916667          0.00694444       147
       24            0.666667            0.333333            0.916667          0.00694444       148
       25            0.583333            0.416667            0.916667          0.00694444       149
       26                 0.5                 0.5            0.916667          0.00347222       150
       27            0.916667            0.916667            0.916667          0.00694444       157
       28            0.916667            0.833333            0.916667           0.0138889       158
       29            0.916667                0.75            0.916667           0.0138889       159
       30            0.916667            0.666667            0.916667           0.0138889       160
       31            0.916667            0.583333            0.916667           0.0138889       161
       32            0.833333            0.833333            0.916667          0.00694444       170
       33            0.833333                0.75            0.916667           0.0138889       171
       34            0.833333            0.666667            0.916667           0.0138889       172
       35            0.833333            0.583333            0.916667          0.00694444       173
       36                0.75                0.75            0.916667          0.00694444       183
       37                0.75            0.666667            0.916667           0.0138889       184
       38            0.666667            0.666667            0.916667          0.00231481       196
       39                   0                   0            0.833333          0.00115741       288
       40            0.916667           0.0833333            0.833333          0.00694444       289
       41            0.833333            0.166667            0.833333          0.00694444       290
       42                0.75                0.25            0.833333          0.00694444       291
       43            0.666667            0.333333            0.833333          0.00694444       292
       44            0.583333            0.416667            0.833333          0.00694444       293
       45                 0.5                 0.5            0.833333          0.00347222       294
       46            0.916667            0.916667            0.833333          0.00694444       301
       47            0.916667            0.833333            0.833333           0.0138889       302
       48            0.916667                0.75            0.833333           0.0138889       303
       49            0.916667            0.666667            0.833333           0.0138889       304
       50            0.916667            0.583333            0.833333           0.0138889       305
       51            0.833333            0.833333            0.833333          0.00694444       314
       52            0.833333                0.75            0.833333           0.0138889       315
       53            0.833333            0.666667            0.833333           0.0138889       316
       54            0.833333            0.583333            0.833333          0.00694444       317
       55                0.75                0.75            0.833333          0.00694444       327
       56                0.75            0.666667            0.833333           0.0138889       328
       57            0.666667            0.666667            0.833333          0.00231481       340
       58                   0                   0                0.75          0.00115741       432
       59            0.916667           0.0833333                0.75          0.00694444       433
       60            0.833333            0.166667                0.75          0.00694444       434
       61                0.75                0.25                0.75          0.00694444       435
       62            0.666667            0.333333                0.75          0.00694444       436
       63            0.583333            0.416667                0.75          0.00694444       437
       64                 0.5                 0.5                0.75          0.00347222       438
       65            0.916667            0.916667                0.75          0.00694444       445
       66            0.916667            0.833333                0.75           0.0138889       446
       67            0.916667                0.75                0.75           0.0138889       447
       68            0.916667            0.666667                0.75           0.0138889       448
       69            0.916667            0.583333                0.75           0.0138889       449
       70            0.833333            0.833333                0.75          0.00694444       458
       71            0.833333                0.75                0.75           0.0138889       459
       72            0.833333            0.666667                0.75           0.0138889       460
       73            0.833333            0.583333                0.75          0.00694444       461
       74                0.75                0.75                0.75          0.00694444       471
       75                0.75            0.666667                0.75           0.0138889       472
       76            0.666667            0.666667                0.75          0.00231481       484
       77                   0                   0            0.666667          0.00115741       576
       78            0.916667           0.0833333            0.666667          0.00694444       577
       79            0.833333            0.166667            0.666667          0.00694444       578
       80                0.75                0.25            0.666667          0.00694444       579
       81            0.666667            0.333333            0.666667          0.00694444       580
       82            0.583333            0.416667            0.666667          0.00694444       581
       83                 0.5                 0.5            0.666667          0.00347222       582
       84            0.916667            0.916667            0.666667          0.00694444       589
       85            0.916667            0.833333            0.666667           0.0138889       590
       86            0.916667                0.75            0.666667           0.0138889       591
       87            0.916667            0.666667            0.666667           0.0138889       592
       88            0.916667            0.583333            0.666667           0.0138889       593
       89            0.833333            0.833333            0.666667          0.00694444       602
       90            0.833333                0.75            0.666667           0.0138889       603
       91            0.833333            0.666667            0.666667           0.0138889       604
       92            0.833333            0.583333            0.666667          0.00694444       605
       93                0.75                0.75            0.666667          0.00694444       615
       94                0.75            0.666667            0.666667           0.0138889       616
       95            0.666667            0.666667            0.666667          0.00231481       628
       96                   0                   0            0.583333          0.00115741       720
       97            0.916667           0.0833333            0.583333          0.00694444       721
       98            0.833333            0.166667            0.583333          0.00694444       722
       99                0.75                0.25            0.583333          0.00694444       723
      100            0.666667            0.333333            0.583333          0.00694444       724
      101            0.583333            0.416667            0.583333          0.00694444       725
      102                 0.5                 0.5            0.583333          0.00347222       726
      103            0.916667            0.916667            0.583333          0.00694444       733
      104            0.916667            0.833333            0.583333           0.0138889       734
      105            0.916667                0.75            0.583333           0.0138889       735
      106            0.916667            0.666667            0.583333           0.0138889       736
      107            0.916667            0.583333            0.583333           0.0138889       737
      108            0.833333            0.833333            0.583333          0.00694444       746
      109            0.833333                0.75            0.583333           0.0138889       747
      110            0.833333            0.666667            0.583333           0.0138889       748
      111            0.833333            0.583333            0.583333          0.00694444       749
      112                0.75                0.75            0.583333          0.00694444       759
      113                0.75            0.666667            0.583333           0.0138889       760
      114            0.666667            0.666667            0.583333          0.00231481       772
      115                   0                   0                 0.5         0.000578704       864
      116            0.916667           0.0833333                 0.5          0.00347222       865
      117            0.833333            0.166667                 0.5          0.00347222       866
      118                0.75                0.25                 0.5          0.00347222       867
      119            0.666667            0.333333                 0.5          0.00347222       868
      120            0.583333            0.416667                 0.5          0.00347222       869
      121                 0.5                 0.5                 0.5          0.00173611       870
      122            0.916667            0.916667                 0.5          0.00347222       877
      123            0.916667            0.833333                 0.5          0.00694444       878
      124            0.916667                0.75                 0.5          0.00694444       879
      125            0.916667            0.666667                 0.5          0.00694444       880
      126            0.916667            0.583333                 0.5          0.00694444       881
      127            0.833333            0.833333                 0.5          0.00347222       890
      128            0.833333                0.75                 0.5          0.00694444       891
      129            0.833333            0.666667                 0.5          0.00694444       892
      130            0.833333            0.583333                 0.5          0.00347222       893
      131                0.75                0.75                 0.5          0.00347222       903
      132                0.75            0.666667                 0.5          0.00694444       904
      133            0.666667            0.666667                 0.5          0.00115741       916
                               nkstot now = 133

  KPOINTS            DIRECT_X            DIRECT_Y            DIRECT_Z              WEIGHT
        1                   0                   0                   0         0.000578704
        2            0.916667           0.0833333                   0          0.00347222
        3            0.833333            0.166667                   0          0.00347222
        4                0.75                0.25                   0          0.00347222
        5            0.666667            0.333333                   0          0.00347222
        6            0.583333            0.416667                   0          0.00347222
        7                 0.5                 0.5                   0          0.00173611
        8            0.916667            0.916667                   0          0.00347222
        9            0.916667            0.833333                   0          0.00694444
       10            0.916667                0.75                   0          0.00694444
       11            0.916667            0.666667                   0          0.00694444
       12            0.916667            0.583333                   0          0.00694444
       13            0.833333            0.833333                   0          0.00347222
       14            0.833333                0.75                   0          0.00694444
       15            0.833333            0.666667                   0          0.00694444
       16            0.833333            0.583333                   0          0.00347222
       17                0.75                0.75                   0          0.00347222
       18                0.75            0.666667                   0          0.00694444
       19            0.666667            0.666667                   0          0.00115741
       20                   0                   0            0.916667          0.00115741
       21            0.916667           0.0833333            0.916667          0.00694444
       22            0.833333            0.166667            0.916667          0.00694444
       23                0.75                0.25            0.916667          0.00694444
       24            0.666667            0.333333            0.916667          0.00694444
       25            0.583333            0.416667            0.916667          0.00694444
       26                 0.5                 0.5            0.916667          0.00347222
       27            0.916667            0.916667            0.916667          0.00694444
       28            0.916667            0.833333            0.916667           0.0138889
       29            0.916667                0.75            0.916667           0.0138889
       30            0.916667            0.666667            0.916667           0.0138889
       31            0.916667            0.583333            0.916667           0.0138889
       32            0.833333            0.833333            0.916667          0.00694444
       33            0.833333                0.75            0.916667           0.0138889
       34            0.833333            0.666667            0.916667           0.0138889
       35            0.833333            0.583333            0.916667          0.00694444
       36                0.75                0.75            0.916667          0.00694444
       37                0.75            0.666667            0.916667           0.0138889
       38            0.666667            0.666667            0.916667          0.00231481
       39                   0                   0            0.833333          0.00115741
       40            0.916667           0.0833333            0.833333          0.00694444
       41            0.833333            0.166667            0.833333          0.00694444
       42                0.75                0.25            0.833333          0.00694444
       43            0.666667            0.333333            0.833333          0.00694444
       44            0.583333            0.416667            0.833333          0.00694444
       45                 0.5                 0.5            0.833333          0.00347222
       46            0.916667            0.916667            0.833333          0.00694444
       47            0.916667            0.833333            0.833333           0.0138889
       48            0.916667                0.75            0.833333           0.0138889
       49            0.916667            0.666667            0.833333           0.0138889
       50            0.916667            0.583333            0.833333           0.0138889
       51            0.833333            0.833333            0.833333          0.00694444
       52            0.833333                0.75            0.833333           0.0138889
       53            0.833333            0.666667            0.833333           0.0138889
       54            0.833333            0.583333            0.833333          0.00694444
       55                0.75                0.75            0.833333          0.00694444
       56                0.75            0.666667            0.833333           0.0138889
       57            0.666667            0.666667            0.833333          0.00231481
       58                   0                   0                0.75          0.00115741
       59            0.916667           0.0833333                0.75          0.00694444
       60            0.833333            0.166667                0.75          0.00694444
       61                0.75                0.25                0.75          0.00694444
       62            0.666667            0.333333                0.75          0.00694444
       63            0.583333            0.416667                0.75          0.00694444
       64                 0.5                 0.5                0.75          0.00347222
       65            0.916667            0.916667                0.75          0.00694444
       66            0.916667            0.833333                0.75           0.0138889
       67            0.916667                0.75                0.75           0.0138889
       68            0.916667            0.666667                0.75           0.0138889
       69            0.916667            0.583333                0.75           0.0138889
       70            0.833333            0.833333                0.75          0.00694444
       71            0.833333                0.75                0.75           0.0138889
       72            0.833333            0.666667                0.75           0.0138889
       73            0.833333            0.583333                0.75          0.00694444
       74                0.75                0.75                0.75          0.00694444
       75                0.75            0.666667                0.75           0.0138889
       76            0.666667            0.666667                0.75          0.00231481
       77                   0                   0            0.666667          0.00115741
       78            0.916667           0.0833333            0.666667          0.00694444
       79            0.833333            0.166667            0.666667          0.00694444
       80                0.75                0.25            0.666667          0.00694444
       81            0.666667            0.333333            0.666667          0.00694444
       82            0.583333            0.416667            0.666667          0.00694444
       83                 0.5                 0.5            0.666667          0.00347222
       84            0.916667            0.916667            0.666667          0.00694444
       85            0.916667            0.833333            0.666667           0.0138889
       86            0.916667                0.75            0.666667           0.0138889
       87            0.916667            0.666667            0.666667           0.0138889
       88            0.916667            0.583333            0.666667           0.0138889
       89            0.833333            0.833333            0.666667          0.00694444
       90            0.833333                0.75            0.666667           0.0138889
       91            0.833333            0.666667            0.666667           0.0138889
       92            0.833333            0.583333            0.666667          0.00694444
       93                0.75                0.75            0.666667          0.00694444
       94                0.75            0.666667            0.666667           0.0138889
       95            0.666667            0.666667            0.666667          0.00231481
       96                   0                   0            0.583333          0.00115741
       97            0.916667           0.0833333            0.583333          0.00694444
       98            0.833333            0.166667            0.583333          0.00694444
       99                0.75                0.25            0.583333          0.00694444
      100            0.666667            0.333333            0.583333          0.00694444
      101            0.583333            0.416667            0.583333          0.00694444
      102                 0.5                 0.5            0.583333          0.00347222
      103            0.916667            0.916667            0.583333          0.00694444
      104            0.916667            0.833333            0.583333           0.0138889
      105            0.916667                0.75            0.583333           0.0138889
      106            0.916667            0.666667            0.583333           0.0138889
      107            0.916667            0.583333            0.583333           0.0138889
      108            0.833333            0.833333            0.583333          0.00694444
      109            0.833333                0.75            0.583333           0.0138889
      110            0.833333            0.666667            0.583333           0.0138889
      111            0.833333            0.583333            0.583333          0.00694444
      112                0.75                0.75            0.583333          0.00694444
      113                0.75            0.666667            0.583333           0.0138889
      114            0.666667            0.666667            0.583333          0.00231481
      115                   0                   0                 0.5         0.000578704
      116            0.916667           0.0833333                 0.5          0.00347222
      117            0.833333            0.166667                 0.5          0.00347222
      118                0.75                0.25                 0.5          0.00347222
      119            0.666667            0.333333                 0.5          0.00347222
      120            0.583333            0.416667                 0.5          0.00347222
      121                 0.5                 0.5                 0.5          0.00173611
      122            0.916667            0.916667                 0.5          0.00347222
      123            0.916667            0.833333                 0.5          0.00694444
      124            0.916667                0.75                 0.5          0.00694444
      125            0.916667            0.666667                 0.5          0.00694444
      126            0.916667            0.583333                 0.5          0.00694444
      127            0.833333            0.833333                 0.5          0.00347222
      128            0.833333                0.75                 0.5          0.00694444
      129            0.833333            0.666667                 0.5          0.00694444
      130            0.833333            0.583333                 0.5          0.00347222
      131                0.75                0.75                 0.5          0.00347222
      132                0.75            0.666667                 0.5          0.00694444
      133            0.666667            0.666667                 0.5          0.00115741

           k-point number in this process = 133
       minimum distributed K point number = 133

  KPOINTS         CARTESIAN_X         CARTESIAN_Y         CARTESIAN_Z              WEIGHT
        1                   0                   0                   0          0.00115741
        2            0.916667            0.625463                   0          0.00694444
        3            0.833333            0.673575                   0          0.00694444
        4                0.75            0.721688                   0          0.00694444
        5            0.666667              0.7698                   0          0.00694444
        6            0.583333            0.817913                   0          0.00694444
        7                 0.5            0.866025                   0          0.00347222
        8            0.916667             1.58771                   0          0.00694444
        9            0.916667             1.49149                   0           0.0138889
       10            0.916667             1.39526                   0           0.0138889
       11            0.916667             1.29904                   0           0.0138889
       12            0.916667             1.20281                   0           0.0138889
       13            0.833333             1.44338                   0          0.00694444
       14            0.833333             1.34715                   0           0.0138889
       15            0.833333             1.25093                   0           0.0138889
       16            0.833333              1.1547                   0          0.00694444
       17                0.75             1.29904                   0          0.00694444
       18                0.75             1.20281                   0           0.0138889
       19            0.666667              1.1547                   0          0.00231481
       20                   0                   0            0.560508          0.00231481
       21            0.916667            0.625463            0.560508           0.0138889
       22            0.833333            0.673575            0.560508           0.0138889
       23                0.75            0.721688            0.560508           0.0138889
       24            0.666667              0.7698            0.560508           0.0138889
       25            0.583333            0.817913            0.560508           0.0138889
       26                 0.5            0.866025            0.560508          0.00694444
       27            0.916667             1.58771            0.560508           0.0138889
       28            0.916667             1.49149            0.560508           0.0277778
       29            0.916667             1.39526            0.560508           0.0277778
       30            0.916667             1.29904            0.560508           0.0277778
       31            0.916667             1.20281            0.560508           0.0277778
       32            0.833333             1.44338            0.560508           0.0138889
       33            0.833333             1.34715            0.560508           0.0277778
       34            0.833333             1.25093            0.560508           0.0277778
       35            0.833333              1.1547            0.560508           0.0138889
       36                0.75             1.29904            0.560508           0.0138889
       37                0.75             1.20281            0.560508           0.0277778
       38            0.666667              1.1547            0.560508          0.00462963
       39                   0                   0            0.509553          0.00231481
       40            0.916667            0.625463            0.509553           0.0138889
       41            0.833333            0.673575            0.509553           0.0138889
       42                0.75            0.721688            0.509553           0.0138889
       43            0.666667              0.7698            0.509553           0.0138889
       44            0.583333            0.817913            0.509553           0.0138889
       45                 0.5            0.866025            0.509553          0.00694444
       46            0.916667             1.58771            0.509553           0.0138889
       47            0.916667             1.49149            0.509553           0.0277778
       48            0.916667             1.39526            0.509553           0.0277778
       49            0.916667             1.29904            0.509553           0.0277778
       50            0.916667             1.20281            0.509553           0.0277778
       51            0.833333             1.44338            0.509553           0.0138889
       52            0.833333             1.34715            0.509553           0.0277778
       53            0.833333             1.25093            0.509553           0.0277778
       54            0.833333              1.1547            0.509553           0.0138889
       55                0.75             1.29904            0.509553           0.0138889
       56                0.75             1.20281            0.509553           0.0277778
       57            0.666667              1.1547            0.509553          0.00462963
       58                   0                   0            0.458597          0.00231481
       59            0.916667            0.625463            0.458597           0.0138889
       60            0.833333            0.673575            0.458597           0.0138889
       61                0.75            0.721688            0.458597           0.0138889
       62            0.666667              0.7698            0.458597           0.0138889
       63            0.583333            0.817913            0.458597           0.0138889
       64                 0.5            0.866025            0.458597          0.00694444
       65            0.916667             1.58771            0.458597           0.0138889
       66            0.916667             1.49149            0.458597           0.0277778
       67            0.916667             1.39526            0.458597           0.0277778
       68            0.916667             1.29904            0.458597           0.0277778
       69            0.916667             1.20281            0.458597           0.0277778
       70            0.833333             1.44338            0.458597           0.0138889
       71            0.833333             1.34715            0.458597           0.0277778
       72            0.833333             1.25093            0.458597           0.0277778
       73            0.833333              1.1547            0.458597           0.0138889
       74                0.75             1.29904            0.458597           0.0138889
       75                0.75             1.20281            0.458597           0.0277778
       76            0.666667              1.1547            0.458597          0.00462963
       77                   0                   0            0.407642          0.00231481
       78            0.916667            0.625463            0.407642           0.0138889
       79            0.833333            0.673575            0.407642           0.0138889
       80                0.75            0.721688            0.407642           0.0138889
       81            0.666667              0.7698            0.407642           0.0138889
       82            0.583333            0.817913            0.407642           0.0138889
       83                 0.5            0.866025            0.407642          0.00694444
       84            0.916667             1.58771            0.407642           0.0138889
       85            0.916667             1.49149            0.407642           0.0277778
       86            0.916667             1.39526            0.407642           0.0277778
       87            0.916667             1.29904            0.407642           0.0277778
       88            0.916667             1.20281            0.407642           0.0277778
       89            0.833333             1.44338            0.407642           0.0138889
       90            0.833333             1.34715            0.407642           0.0277778
       91            0.833333             1.25093            0.407642           0.0277778
       92            0.833333              1.1547            0.407642           0.0138889
       93                0.75             1.29904            0.407642           0.0138889
       94                0.75             1.20281            0.407642           0.0277778
       95            0.666667              1.1547            0.407642          0.00462963
       96                   0                   0            0.356687          0.00231481
       97            0.916667            0.625463            0.356687           0.0138889
       98            0.833333            0.673575            0.356687           0.0138889
       99                0.75            0.721688            0.356687           0.0138889
      100            0.666667              0.7698            0.356687           0.0138889
      101            0.583333            0.817913            0.356687           0.0138889
      102                 0.5            0.866025            0.356687          0.00694444
      103            0.916667             1.58771            0.356687           0.0138889
      104            0.916667             1.49149            0.356687           0.0277778
      105            0.916667             1.39526            0.356687           0.0277778
      106            0.916667             1.29904            0.356687           0.0277778
      107            0.916667             1.20281            0.356687           0.0277778
      108            0.833333             1.44338            0.356687           0.0138889
      109            0.833333             1.34715            0.356687           0.0277778
      110            0.833333             1.25093            0.356687           0.0277778
      111            0.833333              1.1547            0.356687           0.0138889
      112                0.75             1.29904            0.356687           0.0138889
      113                0.75             1.20281            0.356687           0.0277778
      114            0.666667              1.1547            0.356687          0.00462963
      115                   0                   0            0.305732          0.00115741
      116            0.916667            0.625463            0.305732          0.00694444
      117            0.833333            0.673575            0.305732          0.00694444
      118                0.75            0.721688            0.305732          0.00694444
      119            0.666667              0.7698            0.305732          0.00694444
      120            0.583333            0.817913            0.305732          0.00694444
      121                 0.5            0.866025            0.305732          0.00347222
      122            0.916667             1.58771            0.305732          0.00694444
      123            0.916667             1.49149            0.305732           0.0138889
      124            0.916667             1.39526            0.305732           0.0138889
      125            0.916667             1.29904            0.305732           0.0138889
      126            0.916667             1.20281            0.305732           0.0138889
      127            0.833333             1.44338            0.305732          0.00694444
      128            0.833333             1.34715            0.305732           0.0138889
      129            0.833333             1.25093            0.305732           0.0138889
      130            0.833333              1.1547            0.305732          0.00694444
      131                0.75             1.29904            0.305732          0.00694444
      132                0.75             1.20281            0.305732           0.0138889
      133            0.666667              1.1547            0.305732          0.00231481

  KPOINTS            DIRECT_X            DIRECT_Y            DIRECT_Z              WEIGHT
        1                   0                   0                   0          0.00115741
        2            0.916667           0.0833333                   0          0.00694444
        3            0.833333            0.166667                   0          0.00694444
        4                0.75                0.25                   0          0.00694444
        5            0.666667            0.333333                   0          0.00694444
        6            0.583333            0.416667                   0          0.00694444
        7                 0.5                 0.5                   0          0.00347222
        8            0.916667            0.916667                   0          0.00694444
        9            0.916667            0.833333                   0           0.0138889
       10            0.916667                0.75                   0           0.0138889
       11            0.916667            0.666667                   0           0.0138889
       12            0.916667            0.583333                   0           0.0138889
       13            0.833333            0.833333                   0          0.00694444
       14            0.833333                0.75                   0           0.0138889
       15            0.833333            0.666667                   0           0.0138889
       16            0.833333            0.583333                   0          0.00694444
       17                0.75                0.75                   0          0.00694444
       18                0.75            0.666667                   0           0.0138889
       19            0.666667            0.666667                   0          0.00231481
       20                   0                   0            0.916667          0.00231481
       21            0.916667           0.0833333            0.916667           0.0138889
       22            0.833333            0.166667            0.916667           0.0138889
       23                0.75                0.25            0.916667           0.0138889
       24            0.666667            0.333333            0.916667           0.0138889
       25            0.583333            0.416667            0.916667           0.0138889
       26                 0.5                 0.5            0.916667          0.00694444
       27            0.916667            0.916667            0.916667           0.0138889
       28            0.916667            0.833333            0.916667           0.0277778
       29            0.916667                0.75            0.916667           0.0277778
       30            0.916667            0.666667            0.916667           0.0277778
       31            0.916667            0.583333            0.916667           0.0277778
       32            0.833333            0.833333            0.916667           0.0138889
       33            0.833333                0.75            0.916667           0.0277778
       34            0.833333            0.666667            0.916667           0.0277778
       35            0.833333            0.583333            0.916667           0.0138889
       36                0.75                0.75            0.916667           0.0138889
       37                0.75            0.666667            0.916667           0.0277778
       38            0.666667            0.666667            0.916667          0.00462963
       39                   0                   0            0.833333          0.00231481
       40            0.916667           0.0833333            0.833333           0.0138889
       41            0.833333            0.166667            0.833333           0.0138889
       42                0.75                0.25            0.833333           0.0138889
       43            0.666667            0.333333            0.833333           0.0138889
       44            0.583333            0.416667            0.833333           0.0138889
       45                 0.5                 0.5            0.833333          0.00694444
       46            0.916667            0.916667            0.833333           0.0138889
       47            0.916667            0.833333            0.833333           0.0277778
       48            0.916667                0.75            0.833333           0.0277778
       49            0.916667            0.666667            0.833333           0.0277778
       50            0.916667            0.583333            0.833333           0.0277778
       51            0.833333            0.833333            0.833333           0.0138889
       52            0.833333                0.75            0.833333           0.0277778
       53            0.833333            0.666667            0.833333           0.0277778
       54            0.833333            0.583333            0.833333           0.0138889
       55                0.75                0.75            0.833333           0.0138889
       56                0.75            0.666667            0.833333           0.0277778
       57            0.666667            0.666667            0.833333          0.00462963
       58                   0                   0                0.75          0.00231481
       59            0.916667           0.0833333                0.75           0.0138889
       60            0.833333            0.166667                0.75           0.0138889
       61                0.75                0.25                0.75           0.0138889
       62            0.666667            0.333333                0.75           0.0138889
       63            0.583333            0.416667                0.75           0.0138889
       64                 0.5                 0.5                0.75          0.00694444
       65            0.916667            0.916667                0.75           0.0138889
       66            0.916667            0.833333                0.75           0.0277778
       67            0.916667                0.75                0.75           0.0277778
       68            0.916667            0.666667                0.75           0.0277778
       69            0.916667            0.583333                0.75           0.0277778
       70            0.833333            0.833333                0.75           0.0138889
       71            0.833333                0.75                0.75           0.0277778
       72            0.833333            0.666667                0.75           0.0277778
       73            0.833333            0.583333                0.75           0.0138889
       74                0.75                0.75                0.75           0.0138889
       75                0.75            0.666667                0.75           0.0277778
       76            0.666667            0.666667                0.75          0.00462963
       77                   0                   0            0.666667          0.00231481
       78            0.916667           0.0833333            0.666667           0.0138889
       79            0.833333            0.166667            0.666667           0.0138889
       80                0.75                0.25            0.666667           0.0138889
       81            0.666667            0.333333            0.666667           0.0138889
       82            0.583333            0.416667            0.666667           0.0138889
       83                 0.5                 0.5            0.666667          0.00694444
       84            0.916667            0.916667            0.666667           0.0138889
       85            0.916667            0.833333            0.666667           0.0277778
       86            0.916667                0.75            0.666667           0.0277778
       87            0.916667            0.666667            0.666667           0.0277778
       88            0.916667            0.583333            0.666667           0.0277778
       89            0.833333            0.833333            0.666667           0.0138889
       90            0.833333                0.75            0.666667           0.0277778
       91            0.833333            0.666667            0.666667           0.0277778
       92            0.833333            0.583333            0.666667           0.0138889
       93                0.75                0.75            0.666667           0.0138889
       94                0.75            0.666667            0.666667           0.0277778
       95            0.666667            0.666667            0.666667          0.00462963
       96                   0                   0            0.583333          0.00231481
       97            0.916667           0.0833333            0.583333           0.0138889
       98            0.833333            0.166667            0.583333           0.0138889
       99                0.75                0.25            0.583333           0.0138889
      100            0.666667            0.333333            0.583333           0.0138889
      101            0.583333            0.416667            0.583333           0.0138889
      102                 0.5                 0.5            0.583333          0.00694444
      103            0.916667            0.916667            0.583333           0.0138889
      104            0.916667            0.833333            0.583333           0.0277778
      105            0.916667                0.75            0.583333           0.0277778
      106            0.916667            0.666667            0.583333           0.0277778
      107            0.916667            0.583333            0.583333           0.0277778
      108            0.833333            0.833333            0.583333           0.0138889
      109            0.833333                0.75            0.583333           0.0277778
      110            0.833333            0.666667            0.583333           0.0277778
      111            0.833333            0.583333            0.583333           0.0138889
      112                0.75                0.75            0.583333           0.0138889
      113                0.75            0.666667            0.583333           0.0277778
      114            0.666667            0.666667            0.583333          0.00462963
      115                   0                   0                 0.5          0.00115741
      116            0.916667           0.0833333                 0.5          0.00694444
      117            0.833333            0.166667                 0.5          0.00694444
      118                0.75                0.25                 0.5          0.00694444
      119            0.666667            0.333333                 0.5          0.00694444
      120            0.583333            0.416667                 0.5          0.00694444
      121                 0.5                 0.5                 0.5          0.00347222
      122            0.916667            0.916667                 0.5          0.00694444
      123            0.916667            0.833333                 0.5           0.0138889
      124            0.916667                0.75                 0.5           0.0138889
      125            0.916667            0.666667                 0.5           0.0138889
      126            0.916667            0.583333                 0.5           0.0138889
      127            0.833333            0.833333                 0.5          0.00694444
      128            0.833333                0.75                 0.5           0.0138889
      129            0.833333            0.666667                 0.5           0.0138889
      130            0.833333            0.583333                 0.5          0.00694444
      131                0.75                0.75                 0.5          0.00694444
      132                0.75            0.666667                 0.5           0.0138889
      133            0.666667            0.666667                 0.5          0.00231481
 DONE : INIT K-POINTS Time : 0.262775 (SEC)





 >>>>>>>>>>>>>>>>>>>>>>>>>>>>>>>>>>>>>>>>>>>>>>>>>>>>>>>>>>>>>>>>>>>>>>
 |                                                                    |
 | Setup plane waves of wave functions:                               |
 | Use the energy cutoff and the lattice vectors to generate the      |
 | dimensions of FFT grid. The number of FFT grid on each processor   |
 | is 'nrxx'. The number of plane wave basis in reciprocal space is   |
 | different for charege/potential and wave functions. We also set    |
 | the 'sticks' for the parallel of FFT. The number of plane wave of  |
 | each k-point is 'npwk[ik]' in each processor                       |
 <<<<<<<<<<<<<<<<<<<<<<<<<<<<<<<<<<<<<<<<<<<<<<<<<<<<<<<<<<<<<<<<<<<<<<





 SETUP PLANE WAVES FOR WAVE FUNCTIONS
     energy cutoff for wavefunc (unit:Ry) = 60
            [fft grid for wave functions] = 30, 30, 50
                    number of plane waves = 4795
                         number of sticks = 241

 PARALLEL PW FOR WAVE FUNCTIONS
     PROC   COLUMNS(POT)             PW
        1            241           4795
 --------------- sum -------------------
        1            241           4795
 DONE : INIT PLANEWAVE Time : 0.357896 (SEC)

                           occupied bands = 2
                                   NBANDS = 6
                                     npwx = 2448

 SETUP NONLOCAL PSEUDOPOTENTIALS IN PLANE WAVE BASIS
 Mg non-local projectors:
      TOTAL NUMBER OF NONLOCAL PROJECTORS = 0

 nhm = 0, not allocate some matrix. DONE : LOCAL POTENTIAL Time : 0.446256 (SEC)


 Init Non-Local PseudoPotential table : 
 Init Non-Local-Pseudopotential done.
 DONE : NON-LOCAL POTENTIAL Time : 0.446317 (SEC)


 Make real space PAO into reciprocal space.
       max mesh points in Pseudopotential = 1601
     dq(describe PAO in reciprocal space) = 0.01
                                    max q = 934

 number of pseudo atomic orbitals for Mg is 0
 DONE : INIT BASIS Time : 0.446386 (SEC)

Successful completion of Potential's registration : local
Successful completion of Potential's registration : hartree
Successful completion of Potential's registration : xc
                                 init_chg = atomic
 DONE : INIT SCF Time : 0.600163 (SEC)


 PW ALGORITHM --------------- ION=   1  ELEC=   1--------------------------------
Average iterative diagonalization steps: 7.54386 ; where current threshold is: 0.01 . 

 Density error is 0.0941519018362
                          Error Threshold = 0.01

       Energy                       Rydberg                            eV
   E_KohnSham                -3.53081944864                -48.0392631107
     E_Harris                -3.42882351931                -46.6515372991
      E_Fermi               +0.304772714695                +4.14664551478

 PW ALGORITHM --------------- ION=   1  ELEC=   2--------------------------------
Average iterative diagonalization steps: 2.32205513784 ; where current threshold is: 0.0023537975459 . 

 Density error is 0.00887675311921
                          Error Threshold = 0.0023537975459

       Energy                       Rydberg                            eV
   E_KohnSham                -3.56221179751                 -48.466377929
     E_Harris                -3.53973723066                -48.1605957597
      E_Fermi               +0.270420603796                +3.67926106823

 PW ALGORITHM --------------- ION=   1  ELEC=   3--------------------------------
Average iterative diagonalization steps: 3.44862155388 ; where current threshold is: 0.00022191882798 . 

 Density error is 3.94714349146e-05
                          Error Threshold = 0.00022191882798

       Energy                       Rydberg                            eV
   E_KohnSham                -3.56302225851                -48.4774048165
     E_Harris                -3.56303292159                -48.4775498953
      E_Fermi               +0.267153905895                +3.63481536312

 PW ALGORITHM --------------- ION=   1  ELEC=   4--------------------------------
Average iterative diagonalization steps: 5.34085213033 ; where current threshold is: 9.86785872866e-07 . 

 Density error is 1.12722684949e-05
                          Error Threshold = 9.86785872866e-07

       Energy                       Rydberg                            eV
   E_KohnSham                 -3.5631149548                -48.4786660143
     E_Harris                -3.56311371912                 -48.478649202
      E_Fermi               +0.267090518503                +3.63395293341

 PW ALGORITHM --------------- ION=   1  ELEC=   5--------------------------------
Average iterative diagonalization steps: 2.33082706767 ; where current threshold is: 2.81806712373e-07 . 

 Density error is 4.20910283674e-06
                          Error Threshold = 2.81806712373e-07

       Energy                       Rydberg                            eV
   E_KohnSham                -3.56311621326                -48.4786831365
     E_Harris                -3.56311604361                -48.4786808283
      E_Fermi               +0.267053133143                 +3.6334442795

 PW ALGORITHM --------------- ION=   1  ELEC=   6--------------------------------
Average iterative diagonalization steps: 2.29323308271 ; where current threshold is: 1.05227570919e-07 . 

 Density error is 2.19354223142e-07
                          Error Threshold = 1.05227570919e-07

       Energy                       Rydberg                            eV
   E_KohnSham                -3.56311687298                -48.4786921124
     E_Harris                -3.56311667561                -48.4786894272
      E_Fermi               +0.267010628823                +3.63286597856

 PW ALGORITHM --------------- ION=   1  ELEC=   7--------------------------------
Average iterative diagonalization steps: 3.33458646617 ; where current threshold is: 5.48385557855e-09 . 

 Density error is 3.93014363281e-08
                          Error Threshold = 5.48385557855e-09

       Energy                       Rydberg                            eV
   E_KohnSham                -3.56311689877                -48.4786924633
     E_Harris                -3.56311689203                -48.4786923716
      E_Fermi               +0.267016277808                +3.63294283694

 PW ALGORITHM --------------- ION=   1  ELEC=   8--------------------------------
Average iterative diagonalization steps: 2.43483709273 ; where current threshold is: 9.82535908202e-10 . 

 Density error is 1.78227293419e-09
                          Error Threshold = 9.82535908202e-10

       Energy                       Rydberg                            eV
   E_KohnSham                -3.56311690109                -48.4786924949
     E_Harris                -3.56311690144                -48.4786924998
      E_Fermi                +0.26702050798                +3.63300039139

 PW ALGORITHM --------------- ION=   1  ELEC=   9--------------------------------
Average iterative diagonalization steps: 3.68170426065 ; where current threshold is: 4.45568233548e-11 . 

 Density error is 3.98290506697e-11
                          Error Threshold = 4.45568233548e-11

       Energy                       Rydberg                            eV
   E_KohnSham                -3.56311690155                -48.4786925012
     E_Harris                -3.56311690158                -48.4786925016
       E_band               +0.245379095657                +3.33855387103
   E_one_elec                +2.46362006172                +33.5192705466
    E_Hartree               +0.010325754235               +0.140489093743
         E_xc                -1.72163760426                -23.4240813091
      E_Ewald                -4.31501401762                -58.7087775895
      E_demet            -0.000411095629208             -0.00559324298012
      E_descf                            +0                            +0
        E_exx                            +0                            +0
      E_Fermi               +0.267020412937                +3.63299909826

 charge density convergence is achieved
 final etot is -48.4786925012 eV

 STATE ENERGY(eV) AND OCCUPATIONS    NSPIN == 1
 1/133 kpoint (Cartesian) = 0 0 0 (2431 pws)
       1       -3.41466     0.00115741
       2        1.81057     0.00115741
       3        2.38606     0.00115741
       4        15.5651        0.00000
       5        15.5651        0.00000
       6        15.8910        0.00000

 2/133 kpoint (Cartesian) = 0.916667 0.625463 0.00000 (2421 pws)
       1       -3.27829     0.00694444
       2        1.94783     0.00694444
       3        2.51725     0.00694444
       4        13.0440        0.00000
       5        14.2087        0.00000
       6        15.1636        0.00000

 3/133 kpoint (Cartesian) = 0.833333 0.673575 0.00000 (2411 pws)
       1       -2.86933     0.00694444
       2        2.35952     0.00694444
       3        2.90814     0.00694444
       4        10.2612        0.00000
       5        12.9754        0.00000
       6        13.9530        0.00000

 4/133 kpoint (Cartesian) = 0.750000 0.721688 0.00000 (2403 pws)
       1       -2.18825     0.00694444
       2        3.04515     0.00694444
       3        3.54321     0.00622485
       4        7.72853        0.00000
       5        12.0141        0.00000
       6        12.6022        0.00000

 5/133 kpoint (Cartesian) = 0.666667 0.769800 0.00000 (2405 pws)
       1       -1.23611     0.00694444
       2        4.00319    6.92559e-10
       3        4.25592        0.00000
       4        5.63811        0.00000
       5        10.6255        0.00000
       6        10.8195        0.00000

 6/133 kpoint (Cartesian) = 0.583333 0.817913 0.00000 (2402 pws)
       1     -0.0155163     0.00694444
       2        3.17282     0.00694444
       3        5.22642        0.00000
       4        5.85931        0.00000
       5        8.58151        0.00000
       6        8.98170        0.00000

 7/133 kpoint (Cartesian) = 0.500000 0.866025 0.00000 (2404 pws)
       1        1.42012     0.00347222
       2        1.51504     0.00347222
       3        6.45764        0.00000
       4        6.94441        0.00000
       5        7.07651        0.00000
       6        7.61194        0.00000

 8/133 kpoint (Cartesian) = 0.916667 1.58771 0.00000 (2413 pws)
       1       -3.00563     0.00694444
       2        2.22232     0.00694444
       3        2.77845     0.00694444
       4        11.6434        0.00000
       5        11.7847        0.00000
       6        16.3439        0.00000

 9/133 kpoint (Cartesian) = 0.916667 1.49149 0.00000 (2422 pws)
       1       -2.46059      0.0138889
       2        2.77100      0.0138889
       3        3.29389      0.0138889
       4        9.05044        0.00000
       5        10.6287        0.00000
       6        14.2871        0.00000

 10/133 kpoint (Cartesian) = 0.916667 1.39526 0.00000 (2414 pws)
       1       -1.64389      0.0138889
       2        3.59305     0.00989769
       3        4.02240    3.13177e-10
       4        6.68421        0.00000
       5        9.77784        0.00000
       6        11.8479        0.00000

 11/133 kpoint (Cartesian) = 0.916667 1.29904 0.00000 (2407 pws)
       1      -0.557167      0.0138889
       2        4.09906    4.09194e-13
       3        4.68542        0.00000
       4        5.48444        0.00000
       5        9.08170        0.00000
       6        9.66638        0.00000

 12/133 kpoint (Cartesian) = 0.916667 1.20281 0.00000 (2400 pws)
       1       0.794988      0.0138889
       2        2.40188      0.0138889
       3        6.02322        0.00000
       4        6.54472        0.00000
       5        7.78249        0.00000
       6        8.03229        0.00000

 13/133 kpoint (Cartesian) = 0.833333 1.44338 0.00000 (2419 pws)
       1       -1.77988     0.00694444
       2        3.45624     0.00689919
       3        3.91812    2.15426e-07
       4        7.98440        0.00000
       5        8.24247        0.00000
       6        13.0622        0.00000

 14/133 kpoint (Cartesian) = 0.833333 1.34715 0.00000 (2405 pws)
       1      -0.828300      0.0138889
       2        4.41362        0.00000
       3        4.62593        0.00000
       4        5.97959        0.00000
       5        7.47040        0.00000
       6        10.9957        0.00000

 15/133 kpoint (Cartesian) = 0.833333 1.25093 0.00000 (2403 pws)
       1       0.391584      0.0138889
       2        3.57875      0.0107915
       3        5.63591        0.00000
       4        6.02636        0.00000
       5        7.13655        0.00000
       6        8.97728        0.00000

 16/133 kpoint (Cartesian) = 0.833333 1.15470 0.00000 (2402 pws)
       1        1.83130     0.00694444
       2        1.91607     0.00694444
       3        6.49581        0.00000
       4        6.87059        0.00000
       5        7.32599        0.00000
       6        7.47327        0.00000

 17/133 kpoint (Cartesian) = 0.750000 1.29904 0.00000 (2405 pws)
       1       0.256837     0.00694444
       2        4.78571        0.00000
       3        5.11766        0.00000
       4        5.50331        0.00000
       5        6.51115        0.00000
       6        10.1736        0.00000

 18/133 kpoint (Cartesian) = 0.750000 1.20281 0.00000 (2403 pws)
       1        1.60717      0.0138889
       2        3.21089      0.0138889
       3        4.78576        0.00000
       4        6.83809        0.00000
       5        7.44061        0.00000
       6        8.54905        0.00000

 19/133 kpoint (Cartesian) = 0.666667 1.15470 0.00000 (2406 pws)
       1        3.04518     0.00231481
       2        3.10234     0.00231481
       3        3.10234     0.00231481
       4        8.10937        0.00000
       5        8.10937        0.00000
       6        8.15268        0.00000

 20/133 kpoint (Cartesian) = 0.00000 0.00000 0.560508 (2401 pws)
       1       -3.37641     0.00231481
       2        1.17583     0.00231481
       3        3.09640     0.00231481
       4        15.6036        0.00000
       5        15.6036        0.00000
       6        15.9294        0.00000

 21/133 kpoint (Cartesian) = 0.916667 0.625463 0.560508 (2421 pws)
       1       -3.24005      0.0138889
       2        1.31142      0.0138889
       3        3.22914      0.0138889
       4        13.0784        0.00000
       5        14.2472        0.00000
       6        15.1652        0.00000

 22/133 kpoint (Cartesian) = 0.833333 0.673575 0.560508 (2414 pws)
       1       -2.83111      0.0138889
       2        1.71745      0.0138889
       3        3.62507     0.00756030
       4        10.2981        0.00000
       5        13.0139        0.00000
       6        13.9193        0.00000

 23/133 kpoint (Cartesian) = 0.750000 0.721688 0.560508 (2421 pws)
       1       -2.15008      0.0138889
       2        2.39026      0.0138889
       3        4.26976        0.00000
       4        7.76853        0.00000
       5        12.0527        0.00000
       6        12.0873        0.00000

 24/133 kpoint (Cartesian) = 0.666667 0.769800 0.560508 (2407 pws)
       1       -1.19806      0.0138889
       2        3.30448      0.0138889
       3        4.90011        0.00000
       4        5.80191        0.00000
       5        9.90386        0.00000
       6        11.3656        0.00000

 25/133 kpoint (Cartesian) = 0.583333 0.817913 0.560508 (2403 pws)
       1      0.0222276      0.0138889
       2        3.18802      0.0138889
       3        4.66773        0.00000
       4        6.48520        0.00000
       5        7.94664        0.00000
       6        9.70547        0.00000

 26/133 kpoint (Cartesian) = 0.500000 0.866025 0.560508 (2402 pws)
       1        1.45690     0.00694444
       2        1.55102     0.00694444
       3        6.01272        0.00000
       4        6.13746        0.00000
       5        7.95796        0.00000
       6        8.12505        0.00000

 27/133 kpoint (Cartesian) = 0.916667 1.58771 0.560508 (2420 pws)
       1       -2.96740      0.0138889
       2        1.58226      0.0138889
       3        3.49362      0.0135399
       4        11.6781        0.00000
       5        11.8215        0.00000
       6        16.1091        0.00000

 28/133 kpoint (Cartesian) = 0.916667 1.49149 0.560508 (2421 pws)
       1       -2.42240      0.0277778
       2        2.12213      0.0277778
       3        4.01652    9.94699e-10
       4        9.08801        0.00000
       5        10.6629        0.00000
       6        13.6056        0.00000

 29/133 kpoint (Cartesian) = 0.916667 1.39526 0.560508 (2411 pws)
       1       -1.60578      0.0277778
       2        2.92260      0.0277778
       3        4.75396        0.00000
       4        6.73327        0.00000
       5        9.79637        0.00000
       6        11.2483        0.00000

 30/133 kpoint (Cartesian) = 0.916667 1.29904 0.560508 (2399 pws)
       1      -0.519241      0.0277778
       2        3.81030    0.000177241
       3        4.52785        0.00000
       4        6.03403        0.00000
       5        8.79877        0.00000
       6        9.50987        0.00000

 31/133 kpoint (Cartesian) = 0.916667 1.20281 0.560508 (2401 pws)
       1       0.832328      0.0277778
       2        2.43512      0.0277778
       3        5.42328        0.00000
       4        6.86195        0.00000
       5        7.45867        0.00000
       6        8.66445        0.00000

 32/133 kpoint (Cartesian) = 0.833333 1.44338 0.560508 (2417 pws)
       1       -1.74175      0.0138889
       2        2.79207      0.0138889
       3        4.65167        0.00000
       4        8.02090        0.00000
       5        8.28233        0.00000
       6        12.5954        0.00000

 33/133 kpoint (Cartesian) = 0.833333 1.34715 0.560508 (2405 pws)
       1      -0.790300      0.0277778
       2        3.70070     0.00474443
       3        5.29453        0.00000
       4        6.11904        0.00000
       5        7.51398        0.00000
       6        10.4208        0.00000

 34/133 kpoint (Cartesian) = 0.833333 1.25093 0.560508 (2401 pws)
       1       0.429256      0.0277778
       2        3.59408      0.0196579
       3        5.04078        0.00000
       4        6.57564        0.00000
       5        7.23171        0.00000
       6        8.53023        0.00000

 35/133 kpoint (Cartesian) = 0.833333 1.15470 0.560508 (2404 pws)
       1        1.86809      0.0138889
       2        1.95186      0.0138889
       3        6.19397        0.00000
       4        6.53458        0.00000
       5        6.91625        0.00000
       6        8.32548        0.00000

 36/133 kpoint (Cartesian) = 0.750000 1.29904 0.560508 (2407 pws)
       1       0.294597      0.0138889
       2        4.51363        0.00000
       3        5.15439        0.00000
       4        5.41607        0.00000
       5        6.95878        0.00000
       6        9.75497        0.00000

 37/133 kpoint (Cartesian) = 0.750000 1.20281 0.560508 (2400 pws)
       1        1.64426      0.0277778
       2        3.24385      0.0277778
       3        4.80246        0.00000
       4        6.32004        0.00000
       5        7.64385        0.00000
       6        8.42318        0.00000

 38/133 kpoint (Cartesian) = 0.666667 1.15470 0.560508 (2409 pws)
       1        3.08366     0.00462963
       2        3.13574     0.00462963
       3        3.13575     0.00462963
       4        7.62009        0.00000
       5        7.72366        0.00000
[...]
       3        6.37549        0.00000
       4        11.7999        0.00000
       5        16.1794        0.00000
       6        16.1794        0.00000

 78/133 kpoint (Cartesian) = 0.916667 0.625463 0.407642 (2424 pws)
       1       -2.66656      0.0138889
       2      -0.834824      0.0138889
       3        6.50539        0.00000
       4        11.8945        0.00000
       5        13.6965        0.00000
       6        14.8246        0.00000

 79/133 kpoint (Cartesian) = 0.833333 0.673575 0.407642 (2425 pws)
       1       -2.25802      0.0138889
       2      -0.427751      0.0138889
       3        6.88774        0.00000
       4        10.8194        0.00000
       5        12.2387        0.00000
       6        12.7381        0.00000

 80/133 kpoint (Cartesian) = 0.750000 0.721688 0.407642 (2410 pws)
       1       -1.57784      0.0138889
       2       0.248955      0.0138889
       3        7.40873        0.00000
       4        8.42184        0.00000
       5        10.0908        0.00000
       6        12.6308        0.00000

 81/133 kpoint (Cartesian) = 0.666667 0.769800 0.407642 (2407 pws)
       1      -0.627732      0.0138889
       2        1.18934      0.0138889
       3        5.92273        0.00000
       4        7.66356        0.00000
       5        8.70168        0.00000
       6        11.9439        0.00000

 82/133 kpoint (Cartesian) = 0.583333 0.817913 0.407642 (2406 pws)
       1       0.586859      0.0138889
       2        2.34320      0.0138889
       3        3.98503    5.29316e-09
       4        5.72900        0.00000
       5        9.76340        0.00000
       6        11.5316        0.00000

 83/133 kpoint (Cartesian) = 0.500000 0.866025 0.407642 (2398 pws)
       1        1.99182     0.00694444
       2        2.07060     0.00694444
       3        4.01111    3.78535e-10
       4        4.04341    2.83895e-11
       5        11.0591        0.00000
       6        11.1779        0.00000

 84/133 kpoint (Cartesian) = 0.916667 1.58771 0.407642 (2417 pws)
       1       -2.39416      0.0138889
       2      -0.563365      0.0138889
       3        6.76230        0.00000
       4        11.8614        0.00000
       5        12.3573        0.00000
       6        12.5574        0.00000

 85/133 kpoint (Cartesian) = 0.916667 1.49149 0.407642 (2415 pws)
       1       -1.84977      0.0277778
       2     -0.0213402      0.0277778
       3        7.25184        0.00000
       4        9.64394        0.00000
       5        11.0223        0.00000
       6        11.6155        0.00000

 86/133 kpoint (Cartesian) = 0.916667 1.39526 0.407642 (2419 pws)
       1       -1.03444      0.0277778
       2       0.788244      0.0277778
       3        7.05279        0.00000
       4        8.14004        0.00000
       5        9.02486        0.00000
       6        10.5652        0.00000

 87/133 kpoint (Cartesian) = 0.916667 1.29904 0.407642 (2409 pws)
       1      0.0489049      0.0277778
       2        1.85113      0.0277778
       3        5.00754        0.00000
       4        6.77966        0.00000
       5        9.11407        0.00000
       6        10.1011        0.00000

 88/133 kpoint (Cartesian) = 0.916667 1.20281 0.407642 (2404 pws)
       1        1.38816      0.0277778
       2        2.75126      0.0277778
       3        3.57607      0.0218899
       4        4.93063        0.00000
       5        9.49056        0.00000
       6        10.6249        0.00000

 89/133 kpoint (Cartesian) = 0.833333 1.44338 0.407642 (2422 pws)
       1       -1.17012      0.0138889
       2       0.654095      0.0138889
       3        7.73680        0.00000
       4        8.55388        0.00000
       5        8.89733        0.00000
       6        10.5403        0.00000

 90/133 kpoint (Cartesian) = 0.833333 1.34715 0.407642 (2418 pws)
       1      -0.220823      0.0277778
       2        1.59235      0.0277778
       3        6.31427        0.00000
       4        7.72704        0.00000
       5        8.16176        0.00000
       6        9.22976        0.00000

 91/133 kpoint (Cartesian) = 0.833333 1.25093 0.407642 (2404 pws)
       1       0.992692      0.0277778
       2        2.74414      0.0277778
       3        4.37803        0.00000
       4        6.07808        0.00000
       5        7.62788        0.00000
       6        9.31764        0.00000

 92/133 kpoint (Cartesian) = 0.833333 1.15470 0.407642 (2400 pws)
       1        2.40332      0.0138889
       2        2.46902      0.0138889
       3        4.40382        0.00000
       4        4.41414        0.00000
       5        7.48847        0.00000
       6        9.24057        0.00000

 93/133 kpoint (Cartesian) = 0.750000 1.29904 0.407642 (2412 pws)
       1       0.859859      0.0138889
       2        2.64404      0.0138889
       3        5.69159        0.00000
       4        5.84953        0.00000
       5        7.58449        0.00000
       6        7.78653        0.00000

 94/133 kpoint (Cartesian) = 0.750000 1.20281 0.407642 (2400 pws)
       1        2.19564      0.0277778
       2        3.55236      0.0242033
       3        4.29596        0.00000
       4        5.32474        0.00000
       5        6.07794        0.00000
       6        7.42211        0.00000

 95/133 kpoint (Cartesian) = 0.666667 1.15470 0.407642 (2388 pws)
       1        3.59655     0.00322077
       2        3.59656     0.00322047
       3        3.66049     0.00161888
       4        5.50050        0.00000
       5        5.86338        0.00000
       6        5.86339        0.00000

 96/133 kpoint (Cartesian) = 0.00000 0.00000 0.356687 (2448 pws)
       1       -2.45882     0.00231481
       2       -1.54245     0.00231481
       3        7.62520        0.00000
       4        10.3409        0.00000
       5        16.5229        0.00000
       6        16.5229        0.00000

 97/133 kpoint (Cartesian) = 0.916667 0.625463 0.356687 (2430 pws)
       1       -2.32265      0.0138889
       2       -1.40649      0.0138889
       3        7.75280        0.00000
       4        10.4571        0.00000
       5        14.0083        0.00000
       6        14.8354        0.00000

 98/133 kpoint (Cartesian) = 0.833333 0.673575 0.356687 (2429 pws)
       1       -1.91436      0.0138889
       2      -0.998922      0.0138889
       3        8.12224        0.00000
       4        10.6599        0.00000
       5        11.3768        0.00000
       6        12.1493        0.00000

 99/133 kpoint (Cartesian) = 0.750000 0.721688 0.356687 (2415 pws)
       1       -1.23474      0.0138889
       2      -0.321000      0.0138889
       3        8.32004        0.00000
       4        8.95656        0.00000
       5        9.63498        0.00000
       6        11.5797        0.00000

 100/133 kpoint (Cartesian) = 0.666667 0.769800 0.356687 (2412 pws)
       1      -0.285986      0.0138889
       2       0.623207      0.0138889
       3        6.27273        0.00000
       4        7.16767        0.00000
       5        9.83816        0.00000
       6        12.2908        0.00000

 101/133 kpoint (Cartesian) = 0.583333 0.817913 0.356687 (2410 pws)
       1       0.923848      0.0138889
       2        1.81014      0.0138889
       3        4.29331        0.00000
       4        5.17460        0.00000
       5        10.9360        0.00000
       6        11.8786        0.00000

 102/133 kpoint (Cartesian) = 0.500000 0.866025 0.356687 (2408 pws)
       1        2.27552     0.00694444
       2        2.33576     0.00694444
       3        3.51023     0.00665057
       4        3.54840     0.00612955
       5        11.7411        0.00000
       6        12.0486        0.00000

 103/133 kpoint (Cartesian) = 0.916667 1.58771 0.356687 (2422 pws)
       1       -2.05042      0.0138889
       2       -1.13472      0.0138889
       3        8.00312        0.00000
       4        10.6637        0.00000
       5        12.6092        0.00000
       6        12.6411        0.00000

 104/133 kpoint (Cartesian) = 0.916667 1.49149 0.356687 (2417 pws)
       1       -1.50642      0.0277778
       2      -0.591881      0.0277778
       3        8.45234        0.00000
       4        9.94400        0.00000
       5        10.7286        0.00000
       6        11.1594        0.00000

 105/133 kpoint (Cartesian) = 0.916667 1.39526 0.356687 (2412 pws)
       1      -0.691968      0.0277778
       2       0.219808      0.0277778
       3        7.44845        0.00000
       4        8.31710        0.00000
       5        9.43124        0.00000
       6        10.8348        0.00000

 106/133 kpoint (Cartesian) = 0.916667 1.29904 0.356687 (2413 pws)
       1       0.388995      0.0277778
       2        1.29171      0.0277778
       3        5.34326        0.00000
       4        6.23490        0.00000
       5        9.96772        0.00000
       6        10.6351        0.00000

 107/133 kpoint (Cartesian) = 0.916667 1.20281 0.356687 (2405 pws)
       1        1.71558      0.0277778
       2        2.51061      0.0277778
       3        3.59210      0.0199214
       4        4.38330        0.00000
       5        9.89138        0.00000
       6        10.7592        0.00000

 108/133 kpoint (Cartesian) = 0.833333 1.44338 0.356687 (2412 pws)
       1      -0.827432      0.0138889
       2      0.0850596      0.0138889
       3        8.66565        0.00000
       4        8.84686        0.00000
       5        9.22591        0.00000
       6        9.95598        0.00000

 109/133 kpoint (Cartesian) = 0.833333 1.34715 0.356687 (2419 pws)
       1       0.120340      0.0277778
       2        1.02766      0.0277778
       3        6.65380        0.00000
       4        7.47508        0.00000
       5        8.37622        0.00000
       6        9.19081        0.00000

 110/133 kpoint (Cartesian) = 0.833333 1.25093 0.356687 (2409 pws)
       1        1.32885      0.0277778
       2        2.21259      0.0277778
       3        4.68406        0.00000
       4        5.54817        0.00000
       5        7.96203        0.00000
       6        8.83991        0.00000

 111/133 kpoint (Cartesian) = 0.833333 1.15470 0.356687 (2394 pws)
       1        2.68686      0.0138889
       2        2.73473      0.0138889
       3        3.90997    6.95083e-07
       4        3.92266    3.28276e-07
       5        7.82684        0.00000
       6        8.71467        0.00000

 112/133 kpoint (Cartesian) = 0.750000 1.29904 0.356687 (2408 pws)
       1        1.19780      0.0138889
       2        2.09242      0.0138889
       3        5.98500        0.00000
       4        6.11473        0.00000
       5        7.13318        0.00000
       6        7.27406        0.00000

 113/133 kpoint (Cartesian) = 0.750000 1.20281 0.356687 (2390 pws)
       1        2.51962      0.0277778
       2        3.30507      0.0277777
       3        4.34476        0.00000
       4        5.05267        0.00000
       5        6.10763        0.00000
       6        6.88610        0.00000

 114/133 kpoint (Cartesian) = 0.666667 1.15470 0.356687 (2394 pws)
       1        3.80263    3.97815e-05
       2        3.80265    3.97565e-05
       3        4.00631    3.64446e-10
       4        4.92693        0.00000
       5        5.44067        0.00000
       6        5.44068        0.00000

 115/133 kpoint (Cartesian) = 0.00000 0.00000 0.305732 (2436 pws)
       1       -2.03864     0.00115741
       2       -2.03863     0.00115741
       3        8.94784        0.00000
       4        8.94784        0.00000
       5        16.9268        0.00000
       6        16.9268        0.00000

 116/133 kpoint (Cartesian) = 0.916667 0.625463 0.305732 (2428 pws)
       1       -1.90257     0.00694444
       2       -1.90255     0.00694444
       3        9.07158        0.00000
       4        9.07158        0.00000
       5        14.3970        0.00000
       6        14.3970        0.00000

 117/133 kpoint (Cartesian) = 0.833333 0.673575 0.305732 (2430 pws)
       1       -1.49460     0.00694444
       2       -1.49458     0.00694444
       3        9.41274        0.00000
       4        9.41274        0.00000
       5        11.6758        0.00000
       6        11.6759        0.00000

 118/133 kpoint (Cartesian) = 0.750000 0.721688 0.305732 (2412 pws)
       1      -0.815720     0.00694444
       2      -0.815703     0.00694444
       3        8.87168        0.00000
       4        8.87169        0.00000
       5        10.3140        0.00000
       6        10.3140        0.00000

 119/133 kpoint (Cartesian) = 0.666667 0.769800 0.305732 (2420 pws)
       1       0.131148     0.00694444
       2       0.131165     0.00694444
       3        6.68877        0.00000
       4        6.68879        0.00000
       5        11.0844        0.00000
       6        11.0844        0.00000

 120/133 kpoint (Cartesian) = 0.583333 0.817913 0.305732 (2398 pws)
       1        1.33296     0.00694444
       2        1.33298     0.00694444
       3        4.69394        0.00000
       4        4.69396        0.00000
       5        12.0968        0.00000
       6        12.0968        0.00000

 121/133 kpoint (Cartesian) = 0.500000 0.866025 0.305732 (2416 pws)
       1        2.47118     0.00347222
       2        2.47120     0.00347222
       3        3.28910     0.00347222
       4        3.28912     0.00347222
       5        12.1652        0.00000
       6        12.1652        0.00000

 122/133 kpoint (Cartesian) = 0.916667 1.58771 0.305732 (2424 pws)
       1       -1.63054     0.00694444
       2       -1.63052     0.00694444
       3        9.30964        0.00000
       4        9.30964        0.00000
       5        12.8000        0.00000
       6        12.8000        0.00000

 123/133 kpoint (Cartesian) = 0.916667 1.49149 0.305732 (2412 pws)
       1       -1.08705      0.0138889
       2       -1.08704      0.0138889
       3        9.62240        0.00000
       4        9.62240        0.00000
       5        10.5466        0.00000
       6        10.5466        0.00000

 124/133 kpoint (Cartesian) = 0.916667 1.39526 0.305732 (2414 pws)
       1      -0.273784      0.0138889
       2      -0.273766      0.0138889
       3        7.87102        0.00000
       4        7.87104        0.00000
       5        10.4916        0.00000
       6        10.4916        0.00000

 125/133 kpoint (Cartesian) = 0.916667 1.29904 0.305732 (2412 pws)
       1       0.803613      0.0138889
       2       0.803631      0.0138889
       3        5.75342        0.00000
       4        5.75343        0.00000
       5        10.5086        0.00000
       6        10.5086        0.00000

 126/133 kpoint (Cartesian) = 0.916667 1.20281 0.305732 (2412 pws)
       1        2.10261      0.0138889
       2        2.10263      0.0138889
       3        3.92389    3.04887e-07
       4        3.92390    3.04589e-07
       5        10.3194        0.00000
       6        10.3195        0.00000

 127/133 kpoint (Cartesian) = 0.833333 1.44338 0.305732 (2412 pws)
       1      -0.408950     0.00694444
       2      -0.408933     0.00694444
       3        9.09836        0.00000
       4        9.09838        0.00000
       5        9.43226        0.00000
       6        9.43227        0.00000

 128/133 kpoint (Cartesian) = 0.833333 1.34715 0.305732 (2414 pws)
       1       0.536677      0.0138889
       2       0.536694      0.0138889
       3        7.04975        0.00000
       4        7.04976        0.00000
       5        8.76288        0.00000
       6        8.76289        0.00000

 129/133 kpoint (Cartesian) = 0.833333 1.25093 0.305732 (2406 pws)
       1        1.73684      0.0138889
       2        1.73686      0.0138889
       3        5.07891        0.00000
       4        5.07892        0.00000
       5        8.36959        0.00000
       6        8.36960        0.00000

 130/133 kpoint (Cartesian) = 0.833333 1.15470 0.305732 (2400 pws)
       1        2.87783     0.00694444
       2        2.87785     0.00694444
       3        3.67624     0.00188756
       4        3.67625     0.00188707
       5        8.23724        0.00000
       6        8.23725        0.00000

 131/133 kpoint (Cartesian) = 0.750000 1.29904 0.305732 (2412 pws)
       1        1.60921     0.00694444
       2        1.60922     0.00694444
       3        6.22128        0.00000
       4        6.22130        0.00000
       5        6.96219        0.00000
       6        6.96220        0.00000

 132/133 kpoint (Cartesian) = 0.750000 1.20281 0.305732 (2390 pws)
       1        2.90173      0.0138889
       2        2.90175      0.0138889
       3        4.66219        0.00000
       4        4.66220        0.00000
       5        6.43441        0.00000
       6        6.43442        0.00000

 133/133 kpoint (Cartesian) = 0.666667 1.15470 0.305732 (2388 pws)
       1        3.90328    1.69928e-07
       2        3.90329    1.69745e-07
       3        4.42858        0.00000
       4        4.42860        0.00000
       5        5.26746        0.00000
       6        5.26747        0.00000



 --------------------------------------------
 !FINAL_ETOT_IS -48.47869250123495 eV
 --------------------------------------------






  |CLASS_NAME---------|NAME---------------|TIME(Sec)-----|CALLS----|AVG------|PER%-------
                                      total         164.80        17       9.7   1.0e+02%
                 Driver         driver_line         164.79         1   1.6e+02    1.e+02%
               PW_Basis      setuptransform        0.15920         1      0.16     0.097%
          ESolver_KS_PW                 Run         164.34         1   1.6e+02    1.e+02%
               PW_Basis          recip2real        0.17627        62    0.0028      0.11%
              Potential  update_from_charge        0.90820        10     0.091      0.55%
              Potential           cal_v_eff        0.90579        10     0.091      0.55%
               PW_Basis          real2recip        0.28372        98    0.0029      0.17%
                  PotXC           cal_v_eff        0.82793        10     0.083      0.50%
          XC_Functional                v_xc         98.814         5       20.       60.%
          XC_Functional          v_xc_libxc        0.82289        10     0.082      0.50%
              HSolverPW               solve         163.12         9       18.       99.%
        DiagoIterAssist      diagH_subspace         32.249      1197     0.027       20.%
             OperatorPW                hPsi         148.49     27316    0.0054       90.%
               Operator          EkineticPW        0.68105     27316   2.5e-05      0.41%
               Operator              VeffPW         147.46     27316    0.0054       89.%
             PW_Basis_K          recip2real         78.184     36009    0.0022       47.%
             PW_Basis_K    gathers_scatterp         7.1412     36009   0.00020       4.3%
             PW_Basis_K          real2recip         62.937     33301    0.0019       38.%
             PW_Basis_K    gatherp_scatters         2.4012     33301   7.2e-05       1.5%
        DiagoIterAssist     LAPACK_subspace        0.15433      1197   0.00013     0.094%
                DiagoCG           diag_once         123.54      1197      0.10       75.%
            ElecStatePW            psiToRho         6.5176         9      0.72       4.0%
 ----------------------------------------------------------------------------------------

 CLASS_NAME---------|NAME---------------|MEMORY(MB)--------
                                         40.63
             wavefunc                 psi          29.81
        Charge_Mixing                Rrho          2.747
        Charge_Mixing               dRrho          2.403
        Charge_Mixing                drho          2.403
 ----------------------------------------------------------

 Start  Time  : Wed Dec 28 12:42:27 2022
 Finish Time  : Wed Dec 28 12:45:12 2022
 Total  Time  : 0 h 2 mins 45 secs 
