 *********************************************************
 *                                                       *
 *                  WELCOME TO ABACUS v3.0               *
 *                                                       *
 *            'Atomic-orbital Based Ab-initio            *
 *                  Computation at UStc'                 *
 *                                                       *
 *          Website: http://abacus.ustc.edu.cn/          *
 *                                                       *
 *********************************************************
 Tue May  2 12:47:56 2023
 MAKE THE DIR         : OUT.blpstest/
Notice: symbol 'Li_locpsp' is not an element symbol!!!! set the covalent radius to be 0.
 UNIFORM GRID DIM     : 27 * 27 * 27
 UNIFORM GRID DIM(BIG): 27 * 27 * 27
func,idXC_GGA_X_PBE 101
func,idXC_GGA_C_PBE 130
 DONE(0.120296   SEC) : SETUP UNITCELL
 DONE(0.174991   SEC) : SYMMETRY
 DONE(0.175225   SEC) : INIT K-POINTS
 ---------------------------------------------------------
 Self-consistent calculations for electrons
 ---------------------------------------------------------
 SPIN    KPOINTS         PROCESSORS  
 1       1               1           
 ---------------------------------------------------------
 Use plane wave basis
 ---------------------------------------------------------
 ELEMENT NATOM       XC          
 Li      1           
 ---------------------------------------------------------
 Initial plane wave basis and FFT box
 ---------------------------------------------------------
 DONE(0.176373   SEC) : INIT BASIS
 DONE(0.176398   SEC) : INIT PHI
 DONE(0.201577   SEC) : LOCAL POTENTIAL
 DONE(0.201619   SEC) : NON-LOCAL POTENTIAL
 START CHARGE      : atomic
 DONE(0.262689   SEC) : INIT POTENTIAL
 DONE(0.262756   SEC) : INIT OPTIMIZATION
Default type: double
 DONE(0.264079   SEC) : INIT KEDF
======================== Running OFDFT ========================
Iter        Etot(Ha)          Theta      PotNorm     deltaE(Ha)
0     -2.629396766571e-01   2.000e-01   6.338e-02   -2.629e-01  
1     -2.720813016885e-01   7.057e-02   1.856e-02   -9.142e-03  
2     -2.722697931504e-01   4.504e-03   3.476e-03   -1.885e-04  
3     -2.722817865867e-01   3.444e-03   1.038e-03   -1.199e-05  
4     -2.722823091866e-01   5.910e-04   2.020e-04   -5.226e-07  
5     -2.722823356666e-01   1.684e-04   1.715e-05   -2.648e-08  

  |CLASS_NAME---------|NAME---------------|TIME(Sec)-----|CALLS----|AVG------|PER%-------
                       total               8.5937         21        0.41      1e+02     %
   Driver              driver_line         8.5813         1         8.6       1e+02     %
   PW_Basis            recip2real          1.7731         1620      0.0011    21        %
   PW_Basis            gathers_scatterp    0.16096        1620      9.9e-05   1.9       %
   Potential           update_from_charge  4.9052         125       0.039     57        %
   Potential           cal_v_eff           4.9031         125       0.039     57        %
   H_Hartree_pw        v_hartree           0.42926        125       0.0034    5         %
   PW_Basis            real2recip          1.9738         1620      0.0012    23        %
   PW_Basis            gatherp_scatters    0.16088        1620      9.9e-05   1.9       %
   PotXC               cal_v_eff           4.4459         125       0.036     52        %
   XC_Functional       v_xc                4.1844         63        0.066     49        %
   XC_Functional       v_xc_libxc          4.386          125       0.035     51        %
   ESolver_OF          Run                 8.3283         1         8.3       97        %
   KEDF_LKT            LKT_potential       2.852          124       0.023     33        %
   KEDF_vW             vw_potential        0.38402        124       0.0031    4.5       %
 ----------------------------------------------------------------------------------------

 START  Time  : Tue May  2 12:47:56 2023
 FINISH Time  : Tue May  2 12:48:05 2023
 TOTAL  Time  : 9
 SEE INFORMATION IN : OUT.blpstest/
