 *********************************************************
 *                                                       *
 *                  WELCOME TO ABACUS v3.0               *
 *                                                       *
 *            'Atomic-orbital Based Ab-initio            *
 *                  Computation at UStc'                 *
 *                                                       *
 *          Website: http://abacus.ustc.edu.cn/          *
 *                                                       *
 *********************************************************
 Mon Apr 17 14:43:51 2023
 MAKE THE DIR         : OUT.blpstest/
Notice: symbol 'al_locpsp' is not an element symbol!!!! set the covalent radius to be 0.
 UNIFORM GRID DIM     : 27 * 27 * 27
 UNIFORM GRID DIM(BIG): 27 * 27 * 27
func,idXC_GGA_X_PBE 101
func,idXC_GGA_C_PBE 130
 DONE(0.108757   SEC) : SETUP UNITCELL
 DONE(0.199517   SEC) : SYMMETRY
 DONE(0.883159   SEC) : INIT K-POINTS
 ---------------------------------------------------------
 Self-consistent calculations for electrons
 ---------------------------------------------------------
 SPIN    KPOINTS         PROCESSORS  
 1       256             1           
 ---------------------------------------------------------
 Use plane wave basis
 ---------------------------------------------------------
 ELEMENT NATOM       XC          
 Al      1           
 ---------------------------------------------------------
 Initial plane wave basis and FFT box
 ---------------------------------------------------------
 DONE(0.884234   SEC) : INIT BASIS
 DONE(0.884265   SEC) : INIT PHI
 DONE(0.930102   SEC) : LOCAL POTENTIAL
 DONE(0.930145   SEC) : NON-LOCAL POTENTIAL
 START CHARGE      : atomic
 DONE(1.04192    SEC) : INIT POTENTIAL
 DONE(1.04198    SEC) : INIT OPTIMIZATION
 DONE(1.04289    SEC) : INIT KEDF
======================== Running OFDFT ========================
Iter        Etot(Ha)          Theta      PotNorm     deltaE(Ha)
0     -2.019781666178e+00   2.000e-01   2.068e-01   -2.020e+00  
1     -2.020052351074e+00   5.772e-03   2.112e-01   -2.707e-04  
2     -2.093702370907e+00   7.784e-02   2.084e-01   -7.365e-02  
3     -2.098210775015e+00   1.692e-02   4.301e-02   -4.508e-03  
4     -2.098655063568e+00   5.821e-03   1.930e-02   -4.443e-04  
5     -2.098753396389e+00   3.651e-03   2.466e-03   -9.833e-05  
6     -2.098754682206e+00   3.962e-04   7.383e-04   -1.286e-06  
7     -2.098754789321e+00   1.218e-04   6.444e-05   -1.071e-07  
8     -2.098754789840e+00   4.864e-06   1.290e-05   -5.187e-10  

  |CLASS_NAME---------|NAME---------------|TIME(Sec)-----|CALLS----|AVG------|PER%-------
                       total               17.043         21        0.81      1e+02     %
   Driver              driver_line         17.036         1         17        1e+02     %
   PW_Basis            recip2real          2.898          2042      0.0014    17        %
   PW_Basis            gathers_scatterp    0.27051        2042      0.00013   1.6       %
   Potential           update_from_charge  9.4424         227       0.042     55        %
   Potential           cal_v_eff           9.4246         227       0.042     55        %
   H_Hartree_pw        v_hartree           0.81003        227       0.0036    4.8       %
   PW_Basis            real2recip          3.6106         2494      0.0014    21        %
   PW_Basis            gatherp_scatters    0.17173        2494      6.9e-05   1         %
   PotXC               cal_v_eff           8.568          227       0.038     50        %
   XC_Functional       v_xc                8.0232         114       0.07      47        %
   XC_Functional       v_xc_libxc          8.5506         227       0.038     50        %
   ESolver_OF          Run                 16             1         16        94        %
   KEDF_TF             tf_potential        1.1355         226       0.005     6.7       %
   KEDF_WT             wt_potential        4.3385         226       0.019     25        %
   KEDF_vW             vw_potential        0.748          226       0.0033    4.4       %
 ----------------------------------------------------------------------------------------

 START  Time  : Mon Apr 17 14:43:51 2023
 FINISH Time  : Mon Apr 17 14:44:08 2023
 TOTAL  Time  : 17
 SEE INFORMATION IN : OUT.blpstest/
