 *********************************************************
 *                                                       *
 *                  WELCOME TO ABACUS v3.0               *
 *                                                       *
 *            'Atomic-orbital Based Ab-initio            *
 *                  Computation at UStc'                 *
 *                                                       *
 *          Website: http://abacus.ustc.edu.cn/          *
 *                                                       *
 *********************************************************
 Wed Dec 28 16:45:14 2022
 MAKE THE DIR         : OUT.blpstest/
Notice: symbol 'mg_locpsp' is not an element symbol!!!! set the covalent radius to be 0.
Notice: symbol 'al_locpsp' is not an element symbol!!!! set the covalent radius to be 0.
 UNIFORM GRID DIM     : 36 * 36 * 36
 UNIFORM GRID DIM(BIG): 36 * 36 * 36
func,idXC_GGA_X_PBE 101
func,idXC_GGA_C_PBE 130
 DONE(0.191209   SEC) : SETUP UNITCELL
 DONE(0.22313    SEC) : SYMMETRY
 DONE(0.381311   SEC) : INIT K-POINTS
 ---------------------------------------------------------
 Self-consistent calculations for electrons
 ---------------------------------------------------------
 SPIN    KPOINTS         PROCESSORS  
 1       286             1           
 ---------------------------------------------------------
 Use plane wave basis
 ---------------------------------------------------------
 ELEMENT NATOM       XC          
 Mg      1           
 Al      3           
 ---------------------------------------------------------
 Initial plane wave basis and FFT box
 ---------------------------------------------------------
 DONE(0.505363   SEC) : INIT PLANEWAVE
 MEMORY FOR PSI (MB)  : 96.9727
 DONE(0.561265   SEC) : LOCAL POTENTIAL
 DONE(0.561296   SEC) : NON-LOCAL POTENTIAL
 DONE(0.561349   SEC) : INIT BASIS
 START CHARGE      : atomic
 DONE(0.632405   SEC) : INIT SCF
 ITER   ETOT(eV)       EDIFF(eV)      DRHO       TIME(s)    
 CG1    -1.940364e+02  0.000000e+00   5.411e-01  3.595e+01  
 CG2    -1.957282e+02  -1.691749e+00  4.933e-02  1.421e+01  
 CG3    -1.958734e+02  -1.451726e-01  9.075e-03  1.746e+01  
 CG4    -1.959009e+02  -2.751279e-02  5.388e-05  1.631e+01  
 CG5    -1.959017e+02  -8.375106e-04  1.535e-06  2.275e+01  
 CG6    -1.959017e+02  -7.502809e-06  4.432e-08  1.777e+01  
 CG7    -1.959017e+02  -2.487277e-07  3.556e-09  1.938e+01  
 CG8    -1.959017e+02  -1.754527e-08  1.285e-09  1.807e+01  
 CG9    -1.959017e+02  -4.953011e-09  3.523e-12  1.533e+01  

  |CLASS_NAME---------|NAME---------------|TIME(Sec)-----|CALLS----|AVG------|PER%-------
                       total               177.89         17        10        1e+02     %
   Driver              driver_line         177.87         1         1.8e+02   1e+02     %
   PW_Basis            setuptransform      0.16692        1         0.17      0.094     %
   ESolver_KS_PW       Run                 177.31         1         1.8e+02   1e+02     %
   Potential           update_from_charge  0.34993        10        0.035     0.2       %
   Potential           cal_v_eff           0.34878        10        0.035     0.2       %
   PotXC               cal_v_eff           0.32557        10        0.033     0.18      %
   XC_Functional       v_xc                110.87         5         22        62        %
   XC_Functional       v_xc_libxc          0.32304        10        0.032     0.18      %
   HSolverPW           solve               176.85         9         20        99        %
   DiagoIterAssist     diagH_subspace      31.593         2574      0.012     18        %
   OperatorPW          hPsi                155.67         97319     0.0016    88        %
   Operator            EkineticPW          0.56922        97319     5.8e-06   0.32      %
   Operator            VeffPW              154.8          97319     0.0016    87        %
   PW_Basis_K          recip2real          89.895         133181    0.00067   51        %
   PW_Basis_K          gathers_scatterp    7.893          133181    5.9e-05   4.4       %
   PW_Basis_K          real2recip          66.765         117911    0.00057   38        %
   PW_Basis_K          gatherp_scatters    1.3715         117911    1.2e-05   0.77      %
   DiagoIterAssist     LAPACK_subspace     0.12991        2574      5e-05     0.073     %
   DiagoCG             diag_once           133.27         2574      0.052     75        %
   ElecStatePW         psiToRho            10.818         9         1.2       6.1       %
 ----------------------------------------------------------------------------------------

 START  Time  : Wed Dec 28 16:45:14 2022
 FINISH Time  : Wed Dec 28 16:48:12 2022
 TOTAL  Time  : 1.8e+02
 SEE INFORMATION IN : OUT.blpstest/
