 *********************************************************
 *                                                       *
 *                  WELCOME TO ABACUS v3.0               *
 *                                                       *
 *            'Atomic-orbital Based Ab-initio            *
 *                  Computation at UStc'                 *
 *                                                       *
 *          Website: http://abacus.ustc.edu.cn/          *
 *                                                       *
 *********************************************************
 Tue May  2 12:47:56 2023
 MAKE THE DIR         : OUT.blpstest/
Notice: symbol 'Li_locpsp' is not an element symbol!!!! set the covalent radius to be 0.
 UNIFORM GRID DIM     : 30 * 30 * 30
 UNIFORM GRID DIM(BIG): 30 * 30 * 30
func,idXC_GGA_X_PBE 101
func,idXC_GGA_C_PBE 130
 DONE(0.145401   SEC) : SETUP UNITCELL
 DONE(0.200575   SEC) : SYMMETRY
 DONE(0.20083    SEC) : INIT K-POINTS
 ---------------------------------------------------------
 Self-consistent calculations for electrons
 ---------------------------------------------------------
 SPIN    KPOINTS         PROCESSORS  
 1       1               1           
 ---------------------------------------------------------
 Use plane wave basis
 ---------------------------------------------------------
 ELEMENT NATOM       XC          
 Li      1           
 ---------------------------------------------------------
 Initial plane wave basis and FFT box
 ---------------------------------------------------------
 DONE(0.202401   SEC) : INIT BASIS
 DONE(0.202428   SEC) : INIT PHI
 DONE(0.255587   SEC) : LOCAL POTENTIAL
 DONE(0.25566    SEC) : NON-LOCAL POTENTIAL
 START CHARGE      : atomic
 DONE(0.381137   SEC) : INIT POTENTIAL
 DONE(0.381343   SEC) : INIT OPTIMIZATION
Default type: double
 DONE(0.383374   SEC) : INIT KEDF
======================== Running OFDFT ========================
Iter        Etot(Ha)          Theta      PotNorm     deltaE(Ha)
0     -2.676765698999e-01   2.000e-01   6.550e-02   -2.677e-01  
1     -2.758643245105e-01   5.799e-02   4.532e-02   -8.188e-03  
2     -2.771228352958e-01   2.448e-02   1.974e-02   -1.259e-03  
3     -2.772108912109e-01   6.405e-03   1.421e-03   -8.806e-05  
4     -2.772119344707e-01   6.267e-04   3.814e-04   -1.043e-06  
5     -2.772120309293e-01   3.308e-04   2.870e-05   -9.646e-08  
6     -2.772120313376e-01   1.348e-05   6.174e-06   -4.083e-10  

  |CLASS_NAME---------|NAME---------------|TIME(Sec)-----|CALLS----|AVG------|PER%-------
                       total               16.805         21        0.8       1e+02     %
   Driver              driver_line         16.789         1         17        1e+02     %
   PW_Basis            setuptransform      0.11743        1         0.12      0.7       %
   PW_Basis            recip2real          3.4832         2179      0.0016    21        %
   PW_Basis            gathers_scatterp    0.40603        2179      0.00019   2.4       %
   Potential           update_from_charge  9.7906         168       0.058     58        %
   Potential           cal_v_eff           9.7875         168       0.058     58        %
   H_Hartree_pw        v_hartree           0.8267         168       0.0049    4.9       %
   PW_Basis            real2recip          3.7432         2179      0.0017    22        %
   PW_Basis            gatherp_scatters    0.35826        2179      0.00016   2.1       %
   PotXC               cal_v_eff           8.9063         168       0.053     53        %
   XC_Functional       v_xc                8.2465         84        0.098     49        %
   XC_Functional       v_xc_libxc          8.7854         168       0.052     52        %
   ESolver_OF          Run                 16.42          1         16        98        %
   KEDF_LKT            LKT_potential       5.5209         167       0.033     33        %
   KEDF_vW             vw_potential        0.73286        167       0.0044    4.4       %
 ----------------------------------------------------------------------------------------

 START  Time  : Tue May  2 12:47:56 2023
 FINISH Time  : Tue May  2 12:48:13 2023
 TOTAL  Time  : 17
 SEE INFORMATION IN : OUT.blpstest/
