                                                                                     
                             WELCOME TO ABACUS                                       
                                                                                     
               'Atomic-orbital Based Ab-initio Computation at UStc'                  
                                                                                     
                     Website: http://abacus.ustc.edu.cn/                             
                                                                                     
    Version: Parallel, in development
    Processor Number is 1
    Start Time is Sat Aug  7 21:52:24 2021
                                                                                     
 ------------------------------------------------------------------------------------

 READING GENERAL INFORMATION
                           global_out_dir = OUT.stack/
                           global_in_card = INPUT
                               pseudo_dir = ./
                              pseudo_type = blps
                                    DRANK = 1
                                    DSIZE = 1
                                   DCOLOR = 1
                                    GRANK = 1
                                    GSIZE = 1




 >>>>>>>>>>>>>>>>>>>>>>>>>>>>>>>>>>>>>>>>>>>>>>>>>>>>>>>>>>>>>>>>>>>>>>
 |                                                                    |
 | Reading atom information in unitcell:                              |
 | From the input file and the structure file we know the number of   |
 | different elments in this unitcell, then we list the detail        |
 | information for each element, especially the zeta and polar atomic |
 | orbital number for each element. The total atom number is counted. |
 | We calculate the nearest atom distance for each atom and show the  |
 | Cartesian and Direct coordinates for each atom. We list the file   |
 | address for atomic orbitals. The volume and the lattice vectors    |
 | in real and reciprocal space is also shown.                        |
 |                                                                    |
 <<<<<<<<<<<<<<<<<<<<<<<<<<<<<<<<<<<<<<<<<<<<<<<<<<<<<<<<<<<<<<<<<<<<<<




 READING UNITCELL INFORMATION
                                    ntype = 1
                 atom label for species 1 = Al
                  lattice constant (Bohr) = 7.50241
              lattice constant (Angstrom) = 3.9701

 READING ATOM TYPE 1
                               atom label = Al
                      start magnetization = FALSE
                      L=0, number of zeta = 1
                      L=1, number of zeta = 1
                      L=2, number of zeta = 1
             number of atom for this type = 20

                        TOTAL ATOM NUMBER = 20

 DIRECT COORDINATES
         atom                   x                   y                   z                 mag
     taud_Al1                   0                   0                   0                   0
     taud_Al2            0.333333            0.333333                0.05                   0
     taud_Al3            0.666667            0.666667                 0.1                   0
     taud_Al4                   0                   0                0.15                   0
     taud_Al5            0.333333            0.333333                 0.2                   0
     taud_Al6            0.766667            0.766667                0.25                   0
     taud_Al7                 0.1                 0.1                 0.3                   0
     taud_Al8            0.433333            0.433333                0.35                   0
     taud_Al9            0.766667            0.766667                 0.4                   0
    taud_Al10                 0.1                 0.1                0.45                   0
    taud_Al11            0.766667            0.766667                 0.5                   0
    taud_Al12            0.433333            0.433333                0.55                   0
    taud_Al13                 0.1                 0.1                 0.6                   0
    taud_Al14            0.766667            0.766667                0.65                   0
    taud_Al15            0.333333            0.333333                 0.7                   0
    taud_Al16                   0                   0                0.75                   0
    taud_Al17            0.666667            0.666667                 0.8                   0
    taud_Al18            0.333333            0.333333                0.85                   0
    taud_Al19                   0                   0                 0.9                   0
    taud_Al20            0.666667            0.666667                0.95                   0


                          Volume (Bohr^3) = 2111.41
                             Volume (A^3) = 312.878

 Lattice vectors: (Cartesian coordinate: in unit of a_0)
            +0.707107                  +0                  +0
            +0.353553           +0.612372                  +0
                   +0                  +0             +11.547
 Reciprocal vectors: (Cartesian coordinate: in unit of 2 pi/a_0)
             +1.41421           -0.816497                  +0
                   -0            +1.63299                  -0
                   +0                  -0          +0.0866025




 >>>>>>>>>>>>>>>>>>>>>>>>>>>>>>>>>>>>>>>>>>>>>>>>>>>>>>>>>>>>>>>>>>>>>>
 |                                                                    |
 | Reading pseudopotentials files:                                    |
 | The pseudopotential file is in UPF format. The 'NC' indicates that |
 | the type of pseudopotential is 'norm conserving'. Functional of    |
 | exchange and correlation is decided by 4 given parameters in UPF   |
 | file.  We also read in the 'core correction' if there exists.      |
 | Also we can read the valence electrons number and the maximal      |
 | angular momentum used in this pseudopotential. We also read in the |
 | trail wave function, trail atomic density and local-pseudopotential|
 | on logrithmic grid. The non-local pseudopotential projector is also|
 | read in if there is any.                                           |
 |                                                                    |
 <<<<<<<<<<<<<<<<<<<<<<<<<<<<<<<<<<<<<<<<<<<<<<<<<<<<<<<<<<<<<<<<<<<<<<




                PAO radial cut off (Bohr) = 16

 Read in pseudopotential file is al.lda.lps
                     pseudopotential type = 
                            functional Ex = LDA
                            functional Ec = LDA
                          functional GCEx = NOGX
                          functional GCEc = NOGC
                 nonlocal core correction = 0
                        valence electrons = 3
                                     lmax = 0
                           number of zeta = 0
                     number of projectors = 0
     initial pseudo atomic orbital number = 0
                                   NLOCAL = 180

 SETUP THE ELECTRONS NUMBER
            electron number of element Al = 3
      total electron number of element Al = 60
                           occupied bands = 30
                                   NBANDS = 60
 DONE : SETUP UNITCELL Time : 0.0142701 (SEC)





 >>>>>>>>>>>>>>>>>>>>>>>>>>>>>>>>>>>>>>>>>>>>>>>>>>>>>>>>>>>>>>>>>>>>>>
 |                                                                    |
 | Doing symmetry analysis:                                           |
 | We calculate the norm of 3 vectors and the angles between them,    |
 | the type of Bravais lattice is given. We can judge if the unticell |
 | is a primitive cell. Finally we give the point group operation for |
 | this unitcell. We we use the point group operations to do symmetry |
 | analysis on given k-point mesh and the charge density.             |
 |                                                                    |
 <<<<<<<<<<<<<<<<<<<<<<<<<<<<<<<<<<<<<<<<<<<<<<<<<<<<<<<<<<<<<<<<<<<<<<




 LATTICE VECTORS: (CARTESIAN COORDINATE: IN UNIT OF A0)
            +0.707107                  +0                  +0
            +0.353553           +0.612372                  +0
                   +0                  +0             +11.547
                       right hand lattice = 1
                                   NORM_A = 0.707107
                                   NORM_B = 0.707107
                                   NORM_C = 11.547
                           ALPHA (DEGREE) = 60
                           BETA  (DEGREE) = 90
                           GAMMA (DEGREE) = 90
                             BRAVAIS TYPE = 4
                     BRAVAIS LATTICE NAME = 04. Hexagonal cell
 STANDARD LATTICE VECTORS: (CARTESIAN COORDINATE: IN UNIT OF A0)
            +0.707107                  +0                  +0
            +0.353553           +0.612372                  +0
                   +0                  +0             +11.547
                                    IBRAV = 4
                                  BRAVAIS = HEXAGONAL CELL
                       LATTICE CONSTANT A = 34.7347
                                C/A RATIO = 0.667046
                                    ibrav = 4
                        ROTATION MATRICES = 24
              PURE POINT GROUP OPERATIONS = 2
                   SPACE GROUP OPERATIONS = 2
                                       C2 = 0
                                       C3 = 0
                                       C4 = 0
                                       C6 = 0
                                       S1 = 1
                                       S3 = 0
                                       S4 = 0
                                       S6 = 0
                              POINT GROUP = C_1h
 DONE : SYMMETRY Time : 0.082309 (SEC)





 >>>>>>>>>>>>>>>>>>>>>>>>>>>>>>>>>>>>>>>>>>>>>>>>>>>>>>>>>>>>>>>>>>>>>>
 |                                                                    |
 | Setup K-points                                                     |
 | We setup the k-points according to input parameters.               |
 | The reduced k-points are set according to symmetry operations.     |
 | We treat the spin as another set of k-points.                      |
 |                                                                    |
 <<<<<<<<<<<<<<<<<<<<<<<<<<<<<<<<<<<<<<<<<<<<<<<<<<<<<<<<<<<<<<<<<<<<<<





 SETUP K-POINTS
                                    nspin = 1
                   Input type of k points = Monkhorst-Pack(Gamma)
                                   nkstot = 100
                               nkstot_ibz = 31
      IBZ             DirectX             DirectY             DirectZ              Weight    ibz2bz
        1                   0                   0                   0                0.01         0
        2                   0                 0.9                   0                0.04         1
        3                 0.8                   0                   0                0.04         2
        4                   0                 0.7                   0                0.04         3
        5                 0.6                   0                   0                0.04         4
        6                   0                 0.5                   0                0.02         5
        7                 0.9                 0.9                   0                0.02        11
        8                 0.9                 0.8                   0                0.04        12
        9                 0.9                 0.7                   0                0.04        13
       10                 0.9                 0.6                   0                0.04        14
       11                 0.9                 0.5                   0                0.04        15
       12                 0.9                 0.4                   0                0.04        16
       13                 0.9                 0.3                   0                0.04        17
       14                 0.9                 0.2                   0                0.04        18
       15                 0.9                 0.1                   0                0.02        19
       16                 0.8                 0.8                   0                0.02        22
       17                 0.8                 0.7                   0                0.04        23
       18                 0.8                 0.6                   0                0.04        24
       19                 0.8                 0.5                   0                0.04        25
       20                 0.8                 0.4                   0                0.04        26
       21                 0.8                 0.3                   0                0.04        27
       22                 0.2                 0.8                   0                0.02        28
       23                 0.7                 0.7                   0                0.02        33
       24                 0.7                 0.6                   0                0.04        34
       25                 0.7                 0.5                   0                0.04        35
       26                 0.7                 0.4                   0                0.04        36
       27                 0.7                 0.3                   0                0.02        37
       28                 0.6                 0.6                   0                0.02        44
       29                 0.6                 0.5                   0                0.04        45
       30                 0.4                 0.6                   0                0.02        46
       31                 0.5                 0.5                   0                0.01        55
                               nkstot now = 31

  KPOINTS            DIRECT_X            DIRECT_Y            DIRECT_Z              WEIGHT
        1                   0                   0                   0                0.01
        2                   0                 0.9                   0                0.04
        3                 0.8                   0                   0                0.04
        4                   0                 0.7                   0                0.04
        5                 0.6                   0                   0                0.04
        6                   0                 0.5                   0                0.02
        7                 0.9                 0.9                   0                0.02
        8                 0.9                 0.8                   0                0.04
        9                 0.9                 0.7                   0                0.04
       10                 0.9                 0.6                   0                0.04
       11                 0.9                 0.5                   0                0.04
       12                 0.9                 0.4                   0                0.04
       13                 0.9                 0.3                   0                0.04
       14                 0.9                 0.2                   0                0.04
       15                 0.9                 0.1                   0                0.02
       16                 0.8                 0.8                   0                0.02
       17                 0.8                 0.7                   0                0.04
       18                 0.8                 0.6                   0                0.04
       19                 0.8                 0.5                   0                0.04
       20                 0.8                 0.4                   0                0.04
       21                 0.8                 0.3                   0                0.04
       22                 0.2                 0.8                   0                0.02
       23                 0.7                 0.7                   0                0.02
       24                 0.7                 0.6                   0                0.04
       25                 0.7                 0.5                   0                0.04
       26                 0.7                 0.4                   0                0.04
       27                 0.7                 0.3                   0                0.02
       28                 0.6                 0.6                   0                0.02
       29                 0.6                 0.5                   0                0.04
       30                 0.4                 0.6                   0                0.02
       31                 0.5                 0.5                   0                0.01

           k-point number in this process = 31
       minimum distributed K point number = 31

  KPOINTS         CARTESIAN_X         CARTESIAN_Y         CARTESIAN_Z              WEIGHT
        1                   0                   0                   0                0.02
        2                   0             1.46969                   0                0.08
        3             1.13137           -0.653197                   0                0.08
        4                   0              1.1431                   0                0.08
        5            0.848528           -0.489898                   0                0.08
        6                   0            0.816497                   0                0.04
        7             1.27279            0.734847                   0                0.04
        8             1.27279            0.571548                   0                0.08
        9             1.27279            0.408248                   0                0.08
       10             1.27279            0.244949                   0                0.08
       11             1.27279           0.0816497                   0                0.08
       12             1.27279          -0.0816497                   0                0.08
       13             1.27279           -0.244949                   0                0.08
       14             1.27279           -0.408248                   0                0.08
       15             1.27279           -0.571548                   0                0.04
       16             1.13137            0.653197                   0                0.04
       17             1.13137            0.489898                   0                0.08
       18             1.13137            0.326599                   0                0.08
       19             1.13137            0.163299                   0                0.08
       20             1.13137                   0                   0                0.08
       21             1.13137           -0.163299                   0                0.08
       22            0.282843              1.1431                   0                0.04
       23            0.989949            0.571548                   0                0.04
       24            0.989949            0.408248                   0                0.08
       25            0.989949            0.244949                   0                0.08
       26            0.989949           0.0816497                   0                0.08
       27            0.989949          -0.0816497                   0                0.04
       28            0.848528            0.489898                   0                0.04
       29            0.848528            0.326599                   0                0.08
       30            0.565685            0.653197                   0                0.04
       31            0.707107            0.408248                   0                0.02

  KPOINTS            DIRECT_X            DIRECT_Y            DIRECT_Z              WEIGHT
        1                   0                   0                   0                0.02
        2                   0                 0.9                   0                0.08
        3                 0.8                   0                   0                0.08
        4                   0                 0.7                   0                0.08
        5                 0.6                   0                   0                0.08
        6                   0                 0.5                   0                0.04
        7                 0.9                 0.9                   0                0.04
        8                 0.9                 0.8                   0                0.08
        9                 0.9                 0.7                   0                0.08
       10                 0.9                 0.6                   0                0.08
       11                 0.9                 0.5                   0                0.08
       12                 0.9                 0.4                   0                0.08
       13                 0.9                 0.3                   0                0.08
       14                 0.9                 0.2                   0                0.08
       15                 0.9                 0.1                   0                0.04
       16                 0.8                 0.8                   0                0.04
       17                 0.8                 0.7                   0                0.08
       18                 0.8                 0.6                   0                0.08
       19                 0.8                 0.5                   0                0.08
       20                 0.8                 0.4                   0                0.08
       21                 0.8                 0.3                   0                0.08
       22                 0.2                 0.8                   0                0.04
       23                 0.7                 0.7                   0                0.04
       24                 0.7                 0.6                   0                0.08
       25                 0.7                 0.5                   0                0.08
       26                 0.7                 0.4                   0                0.08
       27                 0.7                 0.3                   0                0.04
       28                 0.6                 0.6                   0                0.04
       29                 0.6                 0.5                   0                0.08
       30                 0.4                 0.6                   0                0.04
       31                 0.5                 0.5                   0                0.02
 DONE : INIT K-POINTS Time : 0.0834532 (SEC)





 >>>>>>>>>>>>>>>>>>>>>>>>>>>>>>>>>>>>>>>>>>>>>>>>>>>>>>>>>>>>>>>>>>>>>>
 |                                                                    |
 | Setup plane waves:                                                 |
 | Use the energy cutoff and the lattice vectors to generate the      |
 | dimensions of FFT grid. The number of FFT grid on each processor   |
 | is 'nrxx'. The number of plane wave basis in reciprocal space is   |
 | different for charege/potential and wave functions. We also set    |
 | the 'sticks' for the parallel of FFT.                              |
 |                                                                    |
 <<<<<<<<<<<<<<<<<<<<<<<<<<<<<<<<<<<<<<<<<<<<<<<<<<<<<<<<<<<<<<<<<<<<<<





 SETUP THE PLANE WAVE BASIS
     energy cutoff for wavefunc (unit:Ry) = 40
            [fft grid for wave functions] = 24, 24, 360
          [fft grid for charge/potential] = 24, 24, 360
                      [fft grid division] = 1, 1, 1
      [big fft grid for charge/potential] = 24, 24, 360
                                     nbxx = 207360
                                     nrxx = 207360

 SETUP PLANE WAVES FOR CHARGE/POTENTIAL
                    number of plane waves = 72445
                         number of sticks = 313

 SETUP PLANE WAVES FOR WAVE FUNCTIONS
                    number of plane waves = 15377
                         number of sticks = 109

 PARALLEL PW FOR CHARGE/POTENTIAL
     PROC   COLUMNS(POT)             PW
        1            313          72445
 --------------- sum -------------------
        1            313          72445

 PARALLEL PW FOR WAVE FUNCTIONS
     PROC     COLUMNS(W)             PW
        1            109          15377
 --------------- sum -------------------
        1            109          15377

 SETUP COORDINATES OF PLANE WAVES
              number of total plane waves = 72445

 SETUP COORDINATES OF PLANE WAVES
                            number of |g| = 3653
                                  max |g| = 228.034
                                  min |g| = 0
 DONE : INIT PLANEWAVE Time : 0.400658 (SEC)

                                     npwx = 9127

 SETUP NONLOCAL PSEUDOPOTENTIALS IN PLANE WAVE BASIS
 Al non-local projectors:
      TOTAL NUMBER OF NONLOCAL PROJECTORS = 0

 nhm = 0, not allocate some matrix. DONE : LOCAL POTENTIAL Time : 1.02455 (SEC)


 Init Non-Local PseudoPotential table : 
 Init Non-Local-Pseudopotential done.
 DONE : NON-LOCAL POTENTIAL Time : 1.02461 (SEC)

                                start_pot = atomic
 DONE : INIT POTENTIAL Time : 1.31906 (SEC)


 Make real space PAO into reciprocal space.
       max mesh points in Pseudopotential = 1601
     dq(describe PAO in reciprocal space) = 0.01
                                    max q = 764

 number of pseudo atomic orbitals for Al is 0
 DONE : INIT BASIS Time : 143.722 (SEC)

 -------------------------------------------
 RELAX CELL : 1
 RELAX IONS : 1 (in total: 1)
 ---------------------------------------------------------
 -------------------------------------------

 PW ALGORITHM --------------- ION=   1  ELEC=   1--------------------------------
  K-point    CG iter num      Time(Sec)
        1       7.883333      47.321767
        2       8.350000      50.254962
        3       8.433333      50.910889
        4       8.650000      51.888237
        5       8.433333      51.275268
        6       8.383333      51.004157
        7       8.283333      51.241213
        8       8.200000      50.536269
        9       8.616667      52.659329
       10       8.766667      53.182516
       11       8.516667      51.802192
       12       8.433333      51.613032
       13       8.266667      50.810038
       14       8.516667      52.301183
       15       8.333333      51.753603
       16       8.333333      51.537959
       17       8.483333      52.320492
       18       8.400000      51.677122
       19       8.533333      52.254493
       20       8.266667      51.090137
       21       8.416667      51.715785
       22       8.216667      50.752254
       23       8.550000      52.810585
       24       8.783333      54.281755
       25       8.533333      53.192203
       26       8.233333      51.070258
       27       8.366667      51.609642
       28       8.500000      52.529519
       29       8.550000      51.756958
       30       8.183333      50.165972
       31       8.416667      51.998120

 Density error is 1.706162319914
                          Error Threshold = 0.010000000000

       Energy                       Rydberg                            eV
   E_KohnSham              -84.805120150928            -1153.832853627234
     E_Harris              -85.164114058240            -1158.717216313974
      E_Fermi               +0.624204088776               +8.492732322258

 PW ALGORITHM --------------- ION=   1  ELEC=   2--------------------------------
  K-point    CG iter num      Time(Sec)
        1       5.216667      35.159055
        2       3.950000      27.856977
        3       3.633333      25.788546
        4       3.516667      24.909831
        5       3.183333      22.840068
        6       3.266667      23.668624
        7       4.116667      28.563964
        8       3.283333      23.550951
        9       3.250000      23.279836
       10       3.450000      24.923913
       11       3.183333      22.900767
       12       3.100000      22.391178
       13       3.033333      21.726158
       14       3.050000      21.916511
       15       3.283333      23.520288
       16       3.683333      25.903553
       17       3.150000      22.763270
       18       2.983333      21.419379
       19       2.966667      21.584712
       20       2.900000      20.908078
       21       2.900000      20.908194
       22       3.083333      22.061967
       23       3.333333      23.856949
       24       3.100000      22.689317
       25       2.900000      21.225053
       26       2.833333      20.779722
       27       2.850000      20.810883
       28       3.566667      25.009789
       29       3.033333      21.898069
       30       2.816667      20.632648
       31       3.216667      22.974760

 Density error is 59.419103328841
                          Error Threshold = 0.002843603867

       Energy                       Rydberg                            eV
   E_KohnSham              -26.698474653062             -363.251383190210
     E_Harris              -85.475960291784            -1162.960101990004
      E_Fermi               +0.605094610049               +8.232734525749

 PW ALGORITHM --------------- ION=   1  ELEC=   3--------------------------------
  K-point    CG iter num      Time(Sec)
        1      42.850000     244.428959
        2      44.116667     254.964542
        3      44.933333     260.384446
        4      43.333333     249.739519
        5      44.116667     248.614921
        6      44.266667     248.220977
        7      44.216667     257.409322
        8      44.266667     259.028179
        9      43.816667     190.792338
       10      43.716667     113.770703
       11      45.500000     117.723907
       12      45.866667     116.041566
       13      44.150000     116.689663
       14      45.250000     116.370916
       15      43.716667     112.633415
       16      44.233333     114.294470
       17      45.050000     115.214851
       18      45.233333     117.031818
       19      43.750000     113.244717
       20      41.466667     106.882174
       21      43.550000     112.395568
       22      44.066667     110.606615
       23      43.683333     110.778773
       24      43.933333     113.002725
       25      44.350000     114.545172
       26      45.616667     119.206887
       27      44.950000     135.312308
       28      44.916667     118.511197
       29      46.483333     119.928890
       30      42.450000     110.986299
       31      43.350000     112.695165

 Density error is 11067.535063064202
                          Error Threshold = 0.002843603867

       Energy                       Rydberg                            eV
   E_KohnSham             -481.513639485408            -6551.329161719335
     E_Harris            -1123.827371199310           -15290.455816671716
      E_Fermi              -14.945641861392             -203.345889582254

 PW ALGORITHM --------------- ION=   1  ELEC=   4--------------------------------
  K-point    CG iter num      Time(Sec)
        1      34.716667     109.081876
        2      38.400000     223.513009
        3      35.600000     113.792310
        4      35.466667      90.643186
        5      34.033333      85.350245
        6      32.233333      81.288293
        7      36.450000      90.368331
        8      38.183333      97.875249
        9      34.833333      97.106092
       10      33.950000     198.800007
       11      32.866667     203.455119
       12      33.950000     198.175062
       13      34.283333     202.327800
       14      34.766667     204.116400
       15      36.050000     170.506702
       16      35.066667     123.505278
       17      35.350000     205.814567
       18      33.333333     191.058532
       19      34.333333     193.193399
       20      33.266667     189.637132
       21      34.533333     202.951724
       22      33.783333     185.539440
       23      34.516667     197.043956
       24      35.116667     200.140560
       25      33.350000     191.208599
       26      32.333333     184.493252
       27      32.733333     191.166216
       28      34.300000     193.985597
       29      34.216667     192.648886
       30      32.666667     187.710996
       31      31.316667     179.448641

 Density error is 6676.259236635024
                          Error Threshold = 0.002843603867

       Energy                       Rydberg                            eV
   E_KohnSham             -200.460242888114            -2727.401525742326
     E_Harris             -594.527014795039            -8088.955016142827
      E_Fermi               -7.023278528434              -95.556606627753

 PW ALGORITHM --------------- ION=   1  ELEC=   5--------------------------------
  K-point    CG iter num      Time(Sec)
        1      28.833333     166.870076
        2      30.783333     181.516137
        3      31.700000     182.794257
        4      31.350000     179.380690
        5      34.833333     207.953901
        6      32.716667     193.242329
        7      31.200000     180.358766
        8      28.816667     167.966872
        9      31.683333     184.897811
       10      30.833333     172.565006
       11      31.933333     185.290210
       12      31.616667     182.673420
       13      30.950000     137.178602
       14      31.366667      80.572847
       15      30.050000      77.544153
       16      31.000000      80.552347
       17      31.683333      81.359742
       18      30.633333      79.909440
       19      31.516667      82.420479
       20      30.466667      79.203802
       21      34.350000      91.102067
       22      30.166667      78.949121
       23      33.183333      86.871806
       24      31.300000      81.396726
       25      32.333333      84.543622
       26      34.116667      90.500848
       27      34.683333      91.270550
       28      31.500000      80.785639
       29      31.316667      80.871169
       30      30.700000      79.952235
       31      32.150000      86.569127

 Density error is 10675.607342587306
                          Error Threshold = 0.002843603867

       Energy                       Rydberg                            eV
   E_KohnSham              +66.166671401800             +900.243748758131
     E_Harris             -471.437258950986            -6414.232971234914
      E_Fermi               -4.600023740155              -62.586533801375

 PW ALGORITHM --------------- ION=   1  ELEC=   6--------------------------------
  K-point    CG iter num      Time(Sec)
        1      31.266667      81.244365
        2      33.883333     131.148439
        3      33.066667     193.751412
        4      32.816667     191.032812
        5      35.583333     209.385074
        6      33.650000     197.998231
        7      33.300000     189.280743
        8      33.183333     192.187771
        9      33.200000     193.578816
       10      32.383333     191.287430
       11      35.583333     219.778463
       12      33.083333     193.677239
       13      32.333333     189.216609
       14      33.350000     195.686526
       15      31.783333     187.439667
       16      32.850000     193.115724
       17      33.416667     194.624690
       18      32.600000     188.088983
       19      35.350000     207.854256
       20      32.450000     188.535454
       21      33.050000     192.330639
       22      32.866667     199.425830
       23      34.916667     206.079149
       24      32.916667     194.339704
       25      32.950000     193.691161
       26      35.083333     210.577099
       27      34.950000     206.473333
       28      32.033333     188.003736
       29      32.700000     190.451394
       30      31.800000     189.230608
       31      31.533333     184.972718

 Density error is 10408.449893306180
                          Error Threshold = 0.002843603867

       Energy                       Rydberg                            eV
   E_KohnSham              -80.674095522130            -1097.627380097250
     E_Harris             -503.434199328616            -6849.573678936955
      E_Fermi               -5.277232837731              -71.800436265852

 PW ALGORITHM --------------- ION=   1  ELEC=   7--------------------------------
  K-point    CG iter num      Time(Sec)
        1      26.750000     156.060096
        2      26.216667     158.127638
        3      24.950000     146.937992
        4      24.616667     145.513112
        5      24.250000     139.515124
        6      24.216667     138.356615
        7      25.950000     155.018152
        8      24.433333     144.015289
        9      24.800000     145.631710
       10      24.300000     140.659369
       11      24.050000     136.805805
       12      23.833333     140.751261
       13      23.866667     141.292609
       14      24.650000     145.483606
       15      24.883333     144.661751
       16      24.683333     145.182033
       17      24.583333     145.376063
       18      23.800000     137.987825
       19      23.633333     136.789725
       20      23.316667     136.165317
       21      23.850000     138.677816
       22      24.250000     141.641461
       23      23.850000     137.495327
       24      23.816667     136.450281
       25      23.733333     135.012509
       26      23.033333     133.334901
       27      23.200000     136.653429
       28      23.350000     139.137536
       29      24.116667     141.860673
       30      23.666667     138.683902
       31      23.983333     141.232941

 Density error is 3800.238557412017
                          Error Threshold = 0.002843603867

       Energy                       Rydberg                            eV
   E_KohnSham              -89.362765391787            -1215.842798365507
     E_Harris             -194.339013011777            -2644.117920656315
      E_Fermi               -0.930382449841              -12.658502637030

 PW ALGORITHM --------------- ION=   1  ELEC=   8--------------------------------
  K-point    CG iter num      Time(Sec)
        1      19.300000     117.676498
        2      18.833333     114.006334
        3      19.016667     112.479102
        4      16.616667      97.956800
        5      16.800000     101.036735
        6      16.266667      98.155599
        7      18.616667     111.242434
        8      17.866667     104.829675
        9      18.200000     110.555468
       10      16.833333      99.083073
       11      16.500000      96.839208
       12      16.366667      97.313055
       13      17.100000     101.398546
       14      17.550000     103.890511
       15      17.550000     105.689878
       16      18.150000     109.029539
       17      17.033333     104.044724
       18      16.116667      96.450708
       19      15.416667      93.127159
       20      15.783333      94.031526
       21      16.533333      99.694055
       22      15.633333      95.370224
       23      17.566667     104.876914
       24      16.616667      99.970868
       25      15.500000      94.566438
       26      15.300000      92.112480
       27      15.800000      94.452249
       28      17.350000     100.693218
       29      16.750000      99.223661
       30      15.950000      94.883482
       31      16.133333      92.909911

 Density error is 4467.464270896890
                          Error Threshold = 0.002843603867

       Energy                       Rydberg                            eV
   E_KohnSham              -42.907738797731             -583.789735944815
     E_Harris             -159.847678881918            -2174.839244868348
      E_Fermi               -0.239186651572               -3.254301346924

 PW ALGORITHM --------------- ION=   1  ELEC=   9--------------------------------
  K-point    CG iter num      Time(Sec)
        1      19.883333     121.680328
        2      19.683333     113.183979
        3      19.866667     118.162513
        4      18.300000     111.499459
        5      17.050000     101.737742
        6      15.883333      92.116442
        7      20.183333     120.358031
        8      18.750000     112.861967
        9      18.550000     111.565116
       10      17.366667     102.604509
       11      16.316667      99.528719
       12      16.850000     101.380499
       13      17.566667     103.718973
       14      18.700000      71.964060
       15      19.016667      49.643458
       16      19.066667      49.669215
       17      18.700000      49.148169
       18      17.733333      46.766386
       19      17.766667      45.904226
       20      16.400000      42.701699
       21      16.883333      44.194068
       22      17.600000      46.609539
       23      18.583333      48.253266
       24      17.800000      47.534987
       25      16.900000      45.025303
       26      16.433333      43.065322
       27      16.666667      44.570052
       28      16.816667      44.362342
       29      16.783333      43.988226
       30      16.516667      44.008795
       31      15.566667      40.445070

 Density error is 7235.644599454358
                          Error Threshold = 0.002843603867

       Energy                       Rydberg                            eV
   E_KohnSham               +4.101505662618              +55.803847390873
     E_Harris             -162.538491735393            -2211.449631927248
      E_Fermi               -0.203181990568               -2.764432802712

 PW ALGORITHM --------------- ION=   1  ELEC=  10--------------------------------
  K-point    CG iter num      Time(Sec)
        1      26.800000      66.930048
        2      25.633333      64.010975
        3      25.133333      63.056490
        4      24.016667      61.151551
        5      23.816667      59.602567
        6      23.766667      59.028589
        7      25.883333      64.716397
        8      25.000000      63.057630
        9      24.483333      62.121639
       10      23.983333      59.701497
       11      23.683333      59.729923
       12      23.766667      59.760943
       13      24.033333      60.696025
       14      24.850000      61.729381
       15      24.300000      60.830542
       16      24.800000      61.843746
       17      23.966667      59.452066
       18      23.916667      60.624354
       19      23.250000      57.939593
       20      23.466667      58.744490
       21      23.750000      60.167690
       22      23.583333      60.717824
       23      24.733333      62.371139
       24      24.683333      61.865263
       25      23.766667      58.665516
       26      22.700000      56.838662
       27      22.566667      57.357129
       28      24.266667      60.197794
       29      23.716667      59.136877
       30      23.433333      59.382160
       31      23.466667      59.899962

 Density error is 7939.623186224578
                          Error Threshold = 0.002843603867

       Energy                       Rydberg                            eV
   E_KohnSham              +16.397819194533             +223.103775819424
     E_Harris             -280.668152716619            -3818.686124080192
      E_Fermi               -2.115849472477              -28.787608935980

 PW ALGORITHM --------------- ION=   1  ELEC=  11--------------------------------
  K-point    CG iter num      Time(Sec)
        1      26.166667      66.900949
        2      29.300000      75.855598
        3      28.466667      72.975513
        4      29.850000      76.360283
        5      30.066667      78.116624
        6      29.266667      75.925523
        7      28.416667      72.922897
        8      27.900000      70.414066
        9      29.383333     170.758516
       10      29.700000     170.021627
       11      32.700000     190.956103
       12      30.233333     173.277323
       13      29.033333     166.536318
       14      29.700000     169.986189
       15      27.933333     160.274369
       16      29.150000     170.044882
       17      30.550000     176.833220
       18      30.016667     174.602934
       19      30.966667     183.182425
       20      30.250000     165.852992
       21      30.500000     174.153027
       22      29.266667     170.076898
       23      29.783333     171.939759
       24      30.316667     171.131354
       25      30.150000     166.831487
       26      28.483333     160.374251
       27      28.033333     160.925716
       28      29.166667     168.304232
       29      30.200000     173.540619
       30      29.316667     167.254226
       31      30.250000     173.814029

 Density error is 11474.027220569840
                          Error Threshold = 0.002843603867

       Energy                       Rydberg                            eV
   E_KohnSham               +6.673636461594              +90.799482258243
     E_Harris             -598.422077606292            -8141.950064443768
      E_Fermi               -6.513582048144              -88.621830245268

 PW ALGORITHM --------------- ION=   1  ELEC=  12--------------------------------
  K-point    CG iter num      Time(Sec)
        1      27.100000     154.514657
        2      27.066667     159.671294
        3      26.066667     144.757990
        4      25.516667     145.611534
        5      25.950000     150.308211
        6      25.300000     147.446082
        7      27.616667     158.529018
        8      26.616667     151.933742
        9      25.633333     143.970182
       10      25.033333     149.631550
       11      25.833333     142.913152
       12      25.050000     141.991983
       13      24.950000     142.465875
       14      25.433333     145.455298
       15      26.300000     150.409975
       16      26.000000     149.694962
       17      25.883333     147.519567
       18      24.783333     140.790233
       19      25.666667     150.270093
       20      23.350000     127.589511
       21      25.700000     146.157989
       22      24.616667     141.599741
       23      24.900000     130.693734
       24      25.583333      72.594475
       25      24.750000      62.952488
       26      23.883333      60.933971
       27      23.716667      59.569501
       28      25.216667      64.258223
       29      25.650000      64.708511
       30      23.516667      58.911446
       31      25.850000      65.443542

 Density error is 9716.666675132139
                          Error Threshold = 0.002843603867

       Energy                       Rydberg                            eV
   E_KohnSham              +64.493435353315             +877.478204399723
     E_Harris             -261.178488253022            -3553.515635267161
      E_Fermi               -1.478419893303              -20.114934585469

 PW ALGORITHM --------------- ION=   1  ELEC=  13--------------------------------
  K-point    CG iter num      Time(Sec)
        1      37.450000      95.881459
        2      34.916667      86.040374
        3      38.066667     123.678976
        4      37.833333     223.994319
        5      37.333333     235.025499
        6      36.516667     221.914798
        7      35.166667     209.917755
        8      37.633333     228.709552
        9      34.883333     206.298931
       10      35.450000     213.954843
       11      33.583333     197.072248
       12      36.666667     227.904176
       13      34.500000     212.131444
       14      34.333333     202.202829
       15      37.683333     221.541700
       16      35.166667     205.899547
       17      34.366667     213.025673
       18      37.183333     231.146277
       19      35.750000     211.220585
       20      36.166667     216.614254
       21      34.450000     204.030908
       22      37.350000     223.244659
       23      38.133333     229.866426
       24      33.716667     200.786180
       25      34.666667     206.486029
       26      34.333333     211.035916
       27      35.283333     209.850816
       28      34.450000     200.638896
       29      34.583333     203.461735
       30      36.533333     217.839898
       31      36.533333     228.547779

 Density error is 11110.339294007017
                          Error Threshold = 0.002843603867

       Energy                       Rydberg                            eV
   E_KohnSham              -62.841495565164             -855.002410527967
     E_Harris             -623.914349949110            -8488.790223273909
      E_Fermi               -7.113863507655              -96.789078498369

 PW ALGORITHM --------------- ION=   1  ELEC=  14--------------------------------
  K-point    CG iter num      Time(Sec)
        1      16.033333      96.839320
        2      17.116667     101.851508
        3      16.333333      96.233566
        4      17.416667     107.857012
        5      17.366667     103.762325
        6      16.466667     100.633833
        7      16.600000     103.907499
        8      16.700000      99.816372
        9      16.633333     100.393194
       10      16.083333      99.635700
       11      16.833333      80.292201
       12      17.066667      44.467232
       13      16.883333      44.004507
       14      16.566667      42.686985
       15      17.066667      44.351375
       16      16.650000      42.959939
       17      16.483333      42.141788
       18      16.616667      42.581187
       19      16.683333      42.536243
       20      16.783333      43.945866
       21      16.600000      43.083272
       22      16.800000      43.746930
       23      16.916667      43.541770
       24      16.300000      41.390854
       25      16.800000      43.158448
       26      16.216667      41.264355
       27      16.516667      78.660532
       28      16.700000      96.959256
       29      17.216667     102.476990
       30      16.300000      95.515581
       31      16.716667     100.877427

 Density error is 2060.128412223099
                          Error Threshold = 0.002843603867

       Energy                       Rydberg                            eV
   E_KohnSham              -74.186038083701            -1009.352829983331
     E_Harris             -132.929472490510            -1808.598258005185
      E_Fermi               +0.086729700415               +1.180018111484

 PW ALGORITHM --------------- ION=   1  ELEC=  15--------------------------------
  K-point    CG iter num      Time(Sec)
        1      16.650000     100.401832
        2      17.233333     105.437815
        3      16.883333     100.586577
        4      16.966667     100.423022
        5      16.216667      97.119556
        6      14.416667      88.982794
        7      16.833333      70.247036
        8      17.083333      45.588651
        9      15.533333      41.807935
       10      15.466667      41.602005
       11      14.366667      38.761783
       12      15.250000      41.137237
       13      15.816667      42.878485
       14      16.433333      44.737361
       15      16.733333      45.191265
       16      17.766667      47.727069
       17      16.200000      44.083558
       18      15.050000      41.155881
       19      14.600000      39.844837
       20      13.916667      38.038233
       21      15.066667      40.840956
       22      14.833333      40.448020
       23      15.933333      43.131243
       24      16.116667      43.934505
       25      14.916667      41.270279
       26      14.516667      39.895178
       27      14.616667      40.332927
       28      15.700000      42.511723
       29      14.816667      39.732324
       30      14.216667      38.651525
       31      14.433333      39.107328

 Density error is 5701.283653542298
                          Error Threshold = 0.002843603867

       Energy                       Rydberg                            eV
   E_KohnSham              +33.125492144715             +450.695442222364
     E_Harris             -153.958368375663            -2094.711064692022
      E_Fermi               -0.064159807152               -0.872938959848

 PW ALGORITHM --------------- ION=   1  ELEC=  16--------------------------------
  K-point    CG iter num      Time(Sec)
        1      42.700000     110.264591
        2      42.333333     108.693769
        3      41.983333     107.717083
        4      40.900000     104.127906
        5      41.800000     104.574966
        6      39.550000     103.246785
        7      41.300000     155.246305
        8      40.983333     231.632077
        9      40.550000     231.376915
       10      40.516667     236.822998
       11      40.016667     157.508159
       12      40.283333     101.623043
       13      40.583333     104.123501
       14      40.383333     178.770589
       15      40.333333     241.839285
       16      42.150000     246.981419
       17      40.800000     241.228684
       18      39.133333     233.788179
       19      40.416667     237.992823
       20      38.800000     236.429679
       21      40.066667     236.197122
       22      39.250000     237.477228
       23      42.200000     247.824985
       24      40.933333     246.612697
       25      40.550000     240.435226
       26      39.350000     230.097288
       27      38.933333     230.389629
       28      41.350000     243.045614
       29      40.650000     241.487623
       30      38.800000     230.598369
       31      39.383333     233.025051

 Density error is 11421.371545788634
                          Error Threshold = 0.002843603867

       Energy                       Rydberg                            eV
   E_KohnSham             +610.590257028612            +8307.506638873667
     E_Harris             -691.823563226955            -9412.742470549854
      E_Fermi               -8.144850367104             -110.816374350012

 PW ALGORITHM --------------- ION=   1  ELEC=  17--------------------------------
  K-point    CG iter num      Time(Sec)
        1      54.850000     326.223241
        2      53.983333     326.004191
        3      52.816667     308.990348
        4      52.116667     221.997124
        5      51.083333     128.206650
        6      48.583333     123.931254
        7      53.550000     134.706740
        8      53.750000     139.206124
        9      52.250000     133.226600
       10      51.833333     131.036858
       11      53.116667     135.274903
       12      51.733333     129.068477
       13      52.783333     132.572536
       14      53.100000     134.191928
       15      54.933333     139.048679
       16      53.033333     133.288670
       17      53.416667     136.050114
       18      50.900000     128.843197
       19      50.416667     129.577537
       20      49.116667     124.913751
       21      52.700000     132.663983
       22      50.900000     130.784567
       23      51.966667     197.402523
       24      50.883333     312.206346
       25      51.533333     301.018053
       26      50.233333     300.074972
       27      49.750000     139.726463
       28      52.650000     134.249028
       29      52.650000     135.780629
       30      50.100000     216.469663
       31      48.316667     217.262786

 Density error is 12969.012852058677
                          Error Threshold = 0.002843603867

       Energy                       Rydberg                            eV
   E_KohnSham             -453.619343074600            -6171.807788831401
     E_Harris            -1761.326697192018           -23964.079121332048
      E_Fermi              -24.757715223184             -336.845996496640

 PW ALGORITHM --------------- ION=   1  ELEC=  18--------------------------------
  K-point    CG iter num      Time(Sec)
        1      18.583333      49.523332
        2      21.700000      56.056544
        3      23.233333      60.682609
        4      23.266667      96.897512
        5      23.083333     141.321812
        6      22.200000      75.697643
        7      22.083333     108.805264
        8      22.533333     134.858928
        9      23.033333     140.469940
       10      22.866667      67.449408
       11      24.800000      66.134589
       12      24.166667      64.751168
       13      22.966667      61.702270
       14      23.700000      63.751578
       15      22.200000      59.517009
       16      23.750000      63.401088
       17      24.133333      91.888974
       18      23.233333     131.087276
       19      23.550000     139.528122
       20      21.916667     130.820743
       21      24.066667     141.884893
       22      23.300000     135.597716
       23      24.233333     141.686173
       24      23.083333     134.082994
       25      23.816667     140.221372
       26      22.183333     133.469504
       27      22.150000     131.434275
       28      23.150000      73.637706
       29      24.850000     106.284381
       30      21.700000     128.084873
       31      22.450000     126.766952

 Density error is 9260.723178806769
                          Error Threshold = 0.002843603867

       Energy                       Rydberg                            eV
   E_KohnSham             -785.765773207105           -10690.891808992368
     E_Harris             -510.260464193534            -6942.449777157038
      E_Fermi               -5.600482646168              -76.198475538006

 PW ALGORITHM --------------- ION=   1  ELEC=  19--------------------------------
  K-point    CG iter num      Time(Sec)
        1      62.133333     359.306769
        2      61.833333     351.960501
        3      67.700000     395.062290
        4      66.616667     389.998243
        5      66.500000     388.567970
        6      59.066667     339.714375
        7      63.616667     365.062005
        8      66.300000     386.122646
        9      63.283333     363.597645
       10      62.500000     359.480995
       11      67.533333     395.285270
       12      62.583333     362.830262
       13      62.350000     359.931839
       14      63.433333     369.574673
       15      64.850000     372.776520
       16      67.533333     392.743827
       17      67.316667     202.125472
       18      61.800000     157.580096
       19      63.800000     163.169411
       20      61.600000     155.808090
       21      63.000000     160.447803
       22      62.866667     162.428164
       23      64.233333     164.036701
       24      65.033333     169.906854
       25      62.900000     271.189874
       26      65.200000     394.916209
       27      61.716667     365.610052
       28      67.566667     408.898587
       29      63.950000     388.955643
       30      61.666667     370.829456
       31      60.116667     355.515602

 Density error is 14881.755782455961
                          Error Threshold = 0.002843603867

       Energy                       Rydberg                            eV
   E_KohnSham            -1199.386185125373           -16318.486220187915
     E_Harris            -3473.643950035389           -47261.350543708599
      E_Fermi              -50.049855483910             -680.963218657727

 PW ALGORITHM --------------- ION=   1  ELEC=  20--------------------------------
  K-point    CG iter num      Time(Sec)
        1      33.633333     209.522389
        2      37.200000     227.670156
        3      38.550000     252.249545
        4      37.316667     228.349859
        5      38.683333     235.657501
        6      36.983333     225.082650
        7      37.433333     230.153399
        8      37.116667     224.134849
        9      39.366667     236.119472
       10      39.950000     242.804120
       11      37.833333     237.760505
       12      38.233333     231.641146
       13      39.316667     239.711301
       14      38.933333     226.036649
       15      36.833333     217.806613
       16      39.900000     134.955904
       17      38.150000     100.749831
       18      38.916667     101.672052
       19      39.433333     103.041033
       20      37.850000     100.005702
       21      36.400000      93.535175
       22      37.766667      99.432049
       23      38.900000     102.463129
       24      39.216667     100.718703
       25      37.983333     192.108040
       26      37.366667     221.648098
       27      35.616667     206.618106
       28      38.383333     218.850099
       29      37.683333     224.110044
       30      37.000000     214.362822
       31      37.583333     211.204314

 Density error is 10139.664430671746
                          Error Threshold = 0.002843603867

       Energy                       Rydberg                            eV
   E_KohnSham             +756.642990305816           +10294.656019917857
     E_Harris            -1294.370036813315           -17610.807821130849
      E_Fermi              -17.871144137024             -243.149390042815

 PW ALGORITHM --------------- ION=   1  ELEC=  21--------------------------------
  K-point    CG iter num      Time(Sec)
        1      55.833333     321.006878
        2      57.216667     343.290272
        3      57.633333     358.347166
        4      56.550000     333.959311
        5      54.383333     321.203973
        6      53.983333     333.565599
        7      58.966667     347.985286
        8      55.433333     327.506511
        9      55.400000     334.503500
       10      55.050000     325.690095
       11      56.466667     337.573544
       12      54.866667     323.685354
       13      55.800000     332.446455
       14      55.500000     324.774920
       15      57.216667     335.865085
       16      57.850000     349.816495
       17      57.066667     335.388983
       18      53.916667     324.273402
       19      55.550000     346.461600
       20      52.283333     307.412042
       21      55.183333     329.821853
       22      53.650000     333.391612
       23      57.516667     339.532026
       24      55.666667     334.095313
       25      54.383333     319.909904
       26      52.800000     314.404134
       27      51.900000     307.929522
       28      54.850000     341.062168
       29      54.166667     319.719576
       30      52.766667     310.924623
       31      51.516667     303.340813

 Density error is 13374.210405771730
                          Error Threshold = 0.002843603867

       Energy                       Rydberg                            eV
   E_KohnSham             -324.358509176867            -4413.123919590681
     E_Harris            -1997.684315400780           -27179.889494679759
      E_Fermi              -28.278453580418             -384.748099322191

 PW ALGORITHM --------------- ION=   1  ELEC=  22--------------------------------
  K-point    CG iter num      Time(Sec)
        1      28.133333     165.796096
        2      28.533333     175.605413
        3      29.533333     178.441544
        4      28.583333     170.157975
        5      27.783333     164.662155
        6      27.616667     164.376132
        7      29.966667     182.310176
        8      28.883333     171.112865
        9      30.200000     176.496162
       10      27.616667     165.698226
       11      28.366667     167.187952
       12      27.683333     169.711892
       13      28.633333     169.733029
       14      29.866667     175.419035
       15      29.183333     173.275402
       16      28.850000     170.792830
       17      29.766667     183.161258
       18      27.100000     160.856880
       19      27.283333     159.924061
       20      25.883333     156.332859
       21      27.733333     166.159065
       22      27.050000     160.085966
       23      28.150000     163.261729
       24      27.566667     163.630682
       25      27.666667     170.846569
       26      27.366667     165.570827
       27      26.683333     157.697368
       28      27.916667     164.736983
       29      27.800000     162.453783
       30      25.233333     153.192863
       31      28.216667     166.527706

 Density error is 5537.170036817402
                          Error Threshold = 0.002843603867

       Energy                       Rydberg                            eV
   E_KohnSham             -329.337988702832            -4480.873214218145
     E_Harris             -446.387449625991            -6073.412830601447
      E_Fermi               -4.543413030467              -61.816305581797

 PW ALGORITHM --------------- ION=   1  ELEC=  23--------------------------------
  K-point    CG iter num      Time(Sec)
        1      32.583333     199.872912
        2      32.466667     201.916402
        3      32.066667     205.112802
        4      33.266667     204.968122
        5      32.483333     200.175637
        6      32.366667     197.484294
        7      31.783333     206.161707
        8      33.333333     205.684607
        9      31.550000     194.495921
       10      33.166667     199.644923
       11      31.150000     202.508919
       12      31.550000     195.017925
       13      32.716667     200.867337
       14      31.916667     195.130413
       15      32.766667     207.667854
       16      32.966667     201.545111
       17      32.683333     201.127460
       18      31.366667     193.389561
       19      32.900000     207.109907
       20      31.316667     195.489437
       21      32.133333     198.405630
       22      34.516667     210.091907
       23      32.983333     206.194086
       24      32.483333     212.709391
       25      33.450000     205.158623
       26      31.600000     195.060281
       27      30.966667     190.874056
       28      32.950000     209.124638
       29      31.150000     193.433467
       30      31.566667     195.325621
       31      33.000000     202.780676

 Density error is 11099.205168654249
                          Error Threshold = 0.002843603867

       Energy                       Rydberg                            eV
   E_KohnSham            +2079.403982357529           +28291.742603953870
     E_Harris             -839.655051311078           -11424.093052313026
      E_Fermi              -10.520954619133             -143.144931219628

 PW ALGORITHM --------------- ION=   1  ELEC=  24--------------------------------
  K-point    CG iter num      Time(Sec)
        1      69.533333     416.111966
        2      71.600000     429.892974
        3      68.883333     418.896040
        4      70.666667     423.089679
        5      68.983333     420.182340
        6      61.733333     363.540461
        7      72.716667     435.896312
        8      69.050000     413.347649
        9      68.550000     421.305202
       10      68.200000     407.207175
       11      67.766667     415.107431
       12      63.700000     370.386803
       13      68.900000     412.050022
       14      68.533333     407.500467
       15      70.750000     424.711694
       16      71.400000     425.622477
       17      69.033333     414.420762
       18      66.533333     397.510102
       19      63.166667     373.259416
       20      61.350000     376.289139
       21      63.050000     368.204115
       22      64.483333     380.707294
       23      70.666667     437.411355
       24      69.000000     413.718211
       25      62.800000     271.826195
       26      61.666667     157.962135
       27      62.133333     158.835961
       28      68.866667     179.271861
       29      63.366667     163.356748
       30      61.183333     156.491342
       31      60.700000     155.941882

 Density error is 15575.024848123232
                          Error Threshold = 0.002843603867

       Energy                       Rydberg                            eV
   E_KohnSham            -1305.640440857374           -17764.149534892298
     E_Harris            -4200.687134603877           -57153.280545905698
      E_Fermi              -60.122473861657             -818.008222374600

 PW ALGORITHM --------------- ION=   1  ELEC=  25--------------------------------
  K-point    CG iter num      Time(Sec)
        1      44.516667     115.854850
        2      50.983333     132.960373
        3      54.216667     142.039755
        4      51.966667     132.887552
        5      50.066667     129.887700
        6      43.116667     111.805798
        7      50.166667     130.466070
        8      48.183333     125.035319
        9      49.766667     128.087376
       10      51.833333     133.199131
       11      50.916667     130.191424
       12      52.783333     133.637571
       13      50.750000     129.211519
       14      50.583333     129.635708
       15      47.783333     124.122423
       16      53.650000     137.519683
       17      50.566667     128.848778
       18      50.316667     130.627425
       19      50.916667     129.202771
       20      50.183333     128.236919
       21      51.933333     133.012046
       22      50.400000     130.667637
       23      51.450000     131.335509
       24      50.833333     131.029770
       25      49.900000     126.896352
       26      47.866667     122.061501
       27      47.283333     122.818507
       28      50.033333     127.516142
       29      52.183333     133.762027
       30      49.566667     128.040275
       31      44.950000     116.728432

 Density error is 13277.443130180094
                          Error Threshold = 0.002843603867

       Energy                       Rydberg                            eV
   E_KohnSham             -534.793926707961            -7276.244659022645
     E_Harris            -1805.204023005213           -24561.060765393981
      E_Fermi              -24.456942308274             -332.753771049803

 PW ALGORITHM --------------- ION=   1  ELEC=  26--------------------------------
  K-point    CG iter num      Time(Sec)
        1      41.166667     107.622059
        2      45.083333     117.756271
        3      45.933333     118.563062
        4      43.866667     114.489187
        5      44.533333     114.427976
        6      39.266667     102.337953
        7      43.966667     112.111237
        8      45.316667     114.096090
        9      45.783333     117.830130
       10      44.100000     113.554706
       11      46.066667     119.411118
       12      44.083333     113.349167
       13      43.500000     113.213139
       14      45.133333     117.508225
       15      45.066667     116.639145
       16      45.816667     118.878141
       17      46.200000     119.746828
       18      41.083333     106.144480
       19      45.250000     115.697471
       20      42.183333     109.277897
       21      45.116667     116.749391
       22      42.333333     109.762982
       23      46.133333     118.536583
       24      43.983333     114.349297
       25      45.816667     118.982000
       26      41.366667     109.388580
       27      39.716667     103.773638
       28      43.916667     113.792231
       29      46.616667     120.506816
       30      41.183333     106.532069
       31      40.233333     104.620713

 Density error is 8182.919735779924
                          Error Threshold = 0.002843603867

       Energy                       Rydberg                            eV
   E_KohnSham            +1429.463362166249           +19448.846807698617
     E_Harris             -908.009547144350           -12354.103679562793
      E_Fermi              -10.966081152891             -149.201188409720

 PW ALGORITHM --------------- ION=   1  ELEC=  27--------------------------------
  K-point    CG iter num      Time(Sec)
        1      66.133333     170.227733
        2      67.200000     172.153325
        3      66.316667     171.734919
        4      68.650000     177.518486
        5      63.550000     162.017939
        6      60.116667     153.957445
        7      66.933333     172.577767
        8      67.266667     170.390889
        9      62.116667     156.345745
       10      61.833333     154.327513
       11      66.550000     172.798736
       12      62.800000     158.310591
       13      61.716667     157.190330
       14      62.600000     157.168617
       15      67.666667     173.243523
       16      67.800000     173.624761
       17      61.066667     152.960895
       18      65.133333     168.046111
       19      61.550000     154.847742
       20      58.433333     148.952471
       21      60.716667     153.803187
       22      61.616667     155.263741
       23      63.683333     159.663535
       24      63.050000     160.003271
       25      60.333333     153.304458
       26      60.400000     154.353784
       27      59.683333     152.259659
       28      63.100000     161.356333
       29      63.283333     159.565029
       30      59.483333     149.802049
       31      59.516667     150.545305

 Density error is 14703.130313165802
                          Error Threshold = 0.002843603867

       Energy                       Rydberg                            eV
   E_KohnSham             -966.845820590142           -13154.612247511655
     E_Harris            -3302.514230478023           -44933.011260586376
      E_Fermi              -47.096797251805             -640.784800175291

 PW ALGORITHM --------------- ION=   1  ELEC=  28--------------------------------
  K-point    CG iter num      Time(Sec)
        1      39.850000     102.477134
        2      39.483333      99.110483
        3      40.650000     104.534158
        4      39.216667      99.906525
        5      38.600000      99.143865
        6      37.400000      97.072414
        7      39.700000     102.491383
        8      39.483333     100.697930
        9      39.833333     102.552170
       10      40.583333     105.415185
       11      37.433333      96.258464
       12      38.100000      98.721306
       13      39.083333     100.307233
       14      39.250000      99.180913
       15      39.666667     101.878053
       16      40.233333     102.310021
       17      39.666667     100.698859
       18      38.000000      98.366640
       19      38.750000     100.055158
       20      37.233333      96.078804
       21      37.900000      97.170277
       22      37.216667      95.597338
       23      40.000000     104.646360
       24      40.216667     102.702096
       25      38.666667      98.698700
       26      37.083333      95.828873
       27      38.000000      98.798158
       28      39.283333     100.240505
       29      39.533333     100.976025
       30      37.016667      95.226552
       31      38.033333      98.573045

 Density error is 10163.674774775571
                          Error Threshold = 0.002843603867

       Energy                       Rydberg                            eV
   E_KohnSham            -1259.666157216405           -17138.637315906930
     E_Harris            -1125.818251196904           -15317.543128673220
      E_Fermi              -14.622854108426             -198.954136897307

 PW ALGORITHM --------------- ION=   1  ELEC=  29--------------------------------
  K-point    CG iter num      Time(Sec)
        1      59.466667     162.898040
        2      68.650000     412.293703
        3      61.533333     368.309282
        4      63.283333     389.474940
        5      67.350000     403.795529
        6      60.066667     227.571989
        7      68.383333     178.132418
        8      62.533333     306.830313
        9      62.966667     376.239495
       10      61.083333     363.912558
       11      60.800000     358.019888
       12      65.100000     393.132268
       13      61.416667     374.247330
       14      61.950000     374.565933
       15      62.416667     369.592136
       16      66.250000     401.482213
       17      61.516667     381.627704
       18      60.833333     358.183245
       19      65.683333     396.166140
       20      60.033333     364.275146
       21      59.666667     373.707409
       22      62.083333     370.682499
       23      62.250000     369.765113
       24      61.583333     368.519218
       25      61.616667     382.981976
       26      58.816667     349.174193
       27      59.116667     347.464837
       28      62.300000     371.748166
       29      65.366667     405.864881
       30      59.500000     353.820797
       31      61.216667     203.944225

 Density error is 14877.177734460120
                          Error Threshold = 0.002843603867

       Energy                       Rydberg                            eV
   E_KohnSham             -855.435616788646           -11638.798660470044
     E_Harris            -3475.721917798156           -47289.622745542540
      E_Fermi              -49.711357360761             -676.357715420596

 PW ALGORITHM --------------- ION=   1  ELEC=  30--------------------------------
  K-point    CG iter num      Time(Sec)
        1      38.900000     101.532138
        2      41.183333     106.170526
        3      41.200000     106.022983
        4      40.983333     104.937910
        5      40.233333     104.104437
        6      35.250000      92.258659
        7      39.750000     100.920791
        8      40.500000     104.315577
        9      40.300000     103.940954
       10      40.300000     104.549257
       11      40.416667     103.856842
       12      40.650000     103.602226
       13      40.416667     104.433634
       14      40.633333     105.525810
       15      40.933333     105.487924
       16      40.383333     103.566398
       17      40.183333     102.180136
       18      38.433333      99.613991
       19      41.133333     105.623045
       20      38.883333     100.115786
       21      41.550000     105.332725
       22      38.616667      99.630357
       23      39.566667     101.465874
       24      40.250000     103.110724
       25      41.233333     104.513638
       26      38.950000      99.180735
       27      39.700000     102.035461
       28      39.850000     153.356003
       29      40.333333     104.364906
       30      38.150000      97.363487
       31      34.166667      87.001783

 Density error is 11811.252464345936
                          Error Threshold = 0.002843603867

       Energy                       Rydberg                            eV
   E_KohnSham             +175.269596165453            +2384.665194009107
     E_Harris            -1051.573375974028           -14307.389778343077
      E_Fermi              -13.242326609599             -180.171096667566

 PW ALGORITHM --------------- ION=   1  ELEC=  31--------------------------------
  K-point    CG iter num      Time(Sec)
        1      49.233333     126.567383
        2      49.033333     123.569814
        3      50.400000     129.461630
        4      48.483333     121.792642
        5      47.250000     118.258948
        6      44.733333     112.254433
        7      50.566667     127.643041
        8      49.083333     122.090684
        9      48.216667     216.903209
       10      47.716667     289.560305
       11      47.833333     282.444000
       12      48.183333     214.280341
       13      46.850000     118.511108
       14      46.883333     118.806035
       15      47.283333     118.154471
       16      50.383333     125.883082
       17      47.183333     116.092426
       18      46.050000     114.420381
       19      48.316667     118.368207
       20      45.950000     113.303902
       21      47.900000     121.867469
       22      47.316667     119.729835
       23      48.283333     121.247685
       24      46.333333     117.571725
       25      46.650000     118.553310
       26      44.633333     112.116207
       27      43.933333     111.574069
       28      48.266667     120.052144
       29      47.116667     118.065424
       30      45.183333     113.632070
       31      43.550000     112.032316

 Density error is 12645.129617893595
                          Error Threshold = 0.002843603867

[...]

 PW ALGORITHM --------------- ION=   1  ELEC=  81--------------------------------
  K-point    CG iter num      Time(Sec)
        1      56.500000     147.065069
        2      55.483333     144.188778
        3      56.300000     146.102087
        4      55.283333     144.870045
        5      52.850000     135.744810
        6      51.416667     133.655778
        7      56.333333     146.688810
        8      55.533333     142.357408
        9      53.716667     137.906018
       10      53.016667     135.680228
       11      53.150000     137.896549
       12      52.383333     134.847187
       13      52.950000     136.678646
       14      53.933333     138.110185
       15      55.316667     143.144846
       16      54.500000     143.988559
       17      53.466667     306.493245
       18      52.833333     305.748576
       19      52.816667     296.738733
       20      50.300000     279.237615
       21      52.883333     140.290112
       22      50.966667     129.494699
       23      52.950000     134.950657
       24      53.400000     135.830453
       25      52.966667     136.525851
       26      50.066667     126.630208
       27      49.400000     127.483477
       28      51.850000     130.712167
       29      52.483333     133.287976
       30      51.600000     131.933332
       31      51.350000     129.792431

 Density error is 13245.928567241743
                          Error Threshold = 0.002843603867

       Energy                       Rydberg                            eV
   E_KohnSham             -898.128677437730           -12219.667550357166
     E_Harris            -1903.992389103744           -25905.145440444030
      E_Fermi              -26.761429812878             -364.107932082218

 PW ALGORITHM --------------- ION=   1  ELEC=  82--------------------------------
  K-point    CG iter num      Time(Sec)
        1      42.650000     112.305145
        2      49.616667     127.624817
        3      51.516667     131.239423
        4      50.500000     130.281271
        5      48.166667     122.493770
        6      43.400000     113.143327
        7      50.350000     128.972148
        8      50.016667     129.971505
        9      46.483333     119.866999
       10      49.266667     127.355770
       11      50.033333     129.888220
       12      50.283333     128.869137
       13      49.883333     129.295527
       14      49.000000     126.407936
       15      48.750000     126.911665
       16      51.866667     132.742722
       17      47.983333     123.699331
       18      46.083333     119.468159
       19      48.233333     122.832657
       20      46.833333     120.325903
       21      47.766667     121.169321
       22      46.316667     119.756406
       23      50.466667     129.410741
       24      48.300000     122.942128
       25      48.716667     123.781851
       26      45.450000     114.841790
       27      45.566667     116.199795
       28      47.883333     123.232883
       29      50.500000     127.663342
       30      46.616667     120.192292
       31      44.283333     114.593453

 Density error is 13199.192921131047
                          Error Threshold = 0.002843603867

       Energy                       Rydberg                            eV
   E_KohnSham             -929.175032530324           -12642.074881747758
     E_Harris            -1849.923726248203           -25169.503542367729
      E_Fermi              -25.906696166358             -352.478684217224

 PW ALGORITHM --------------- ION=   1  ELEC=  83--------------------------------
  K-point    CG iter num      Time(Sec)
        1      41.150000     106.444067
        2      48.883333     126.664417
        3      52.000000     133.709347
        4      51.083333     131.838988
        5      47.683333     122.485446
        6      43.100000     111.581387
        7      49.900000     129.797400
        8      48.750000     125.378701
        9      48.183333     123.556645
       10      48.300000     123.824474
       11      49.966667     127.845546
       12      49.766667     127.079873
       13      47.783333     122.296295
       14      49.316667     126.306465
       15      47.233333     122.025970
       16      52.966667     133.825081
       17      47.666667     121.747513
       18      46.766667     119.106251
       19      46.833333     118.333512
       20      47.283333     120.870884
       21      46.900000     117.475611
       22      46.900000     120.352887
       23      51.150000     130.747312
       24      48.250000     123.177988
       25      46.800000     118.990693
       26      45.050000     115.302398
       27      44.616667     114.099641
       28      47.600000     121.786231
       29      49.500000     126.706303
       30      46.783333     118.593242
       31      45.350000     118.448074

 Density error is 13213.597400737357
                          Error Threshold = 0.002843603867

       Energy                       Rydberg                            eV
   E_KohnSham            -1007.736600682929           -13710.959852438520
     E_Harris            -1850.336620136528           -25175.121251918325
      E_Fermi              -25.924548838618             -352.721582284484

 PW ALGORITHM --------------- ION=   1  ELEC=  84--------------------------------
  K-point    CG iter num      Time(Sec)
        1      44.566667     116.105159
        2      51.250000     131.500776
        3      51.883333     132.628756
        4      50.150000     128.457533
        5      48.866667     123.546320
        6      43.533333     110.817070
        7      50.800000     130.723729
        8      49.733333     127.268174
        9      49.116667     127.184190
       10      48.733333     123.961655
       11      50.666667     131.127844
       12      50.716667     128.551344
       13      50.616667     128.976720
       14      50.233333     127.851603
       15      49.533333     126.685008
       16      53.500000     137.243000
       17      47.700000     120.682162
       18      46.866667     122.142996
       19      47.400000     120.667872
       20      48.266667     123.257521
       21      47.600000     121.694855
       22      46.616667     118.830750
       23      51.433333     132.177106
       24      49.650000     126.054397
       25      47.633333     121.902506
       26      46.033333     117.897226
       27      46.250000     117.682535
       28      47.583333     122.036349
       29      50.416667     129.020940
       30      47.516667     120.001216
       31      44.016667     113.895540

 Density error is 13268.171719679778
                          Error Threshold = 0.002843603867

       Energy                       Rydberg                            eV
   E_KohnSham             +683.837413090679            +9304.085323613019
     E_Harris            -1918.730108203801           -26105.662395728243
      E_Fermi              -26.980480403392             -367.088268263471

 PW ALGORITHM --------------- ION=   1  ELEC=  85--------------------------------
  K-point    CG iter num      Time(Sec)
        1      55.900000     141.955556
        2      55.700000     144.604186
        3      54.433333     138.762527
        4      54.316667     139.537272
        5      54.150000     138.380231
        6      50.983333     131.286089
        7      56.883333     146.428433
        8      54.583333     138.400666
        9      54.250000     138.197099
       10      52.366667     133.345723
       11      52.850000     134.278629
       12      53.416667     137.171724
       13      53.600000     136.258256
       14      53.466667     136.515688
       15      54.200000     138.787509
       16      55.933333     142.010077
       17      53.633333     136.977139
       18      53.033333     134.911872
       19      53.566667     137.695729
       20      52.150000     133.288362
       21      53.350000     137.483600
       22      52.766667     135.580930
       23      54.433333     140.771792
       24      54.300000     139.927536
       25      53.333333     136.353824
       26      51.233333     132.153374
       27      51.866667     133.194409
       28      54.850000     141.984373
       29      53.300000     134.301635
       30      51.266667     133.009872
       31      52.316667     134.745067

 Density error is 13233.982451437241
                          Error Threshold = 0.002843603867

       Energy                       Rydberg                            eV
   E_KohnSham              +87.956629268475            +1196.711334924825
     E_Harris            -1880.376896297260           -25583.840177197839
      E_Fermi              -26.386504749441             -359.006814896456

 PW ALGORITHM --------------- ION=   1  ELEC=  86--------------------------------
  K-point    CG iter num      Time(Sec)
        1      55.433333     140.514684
        2      56.966667     146.010481
        3      54.883333     140.494389
        4      55.600000     143.062739
        5      52.483333     134.811914
        6      51.933333     132.888994
        7      55.950000     142.692574
        8      53.866667     136.512051
        9      52.600000     135.596844
       10      52.016667     179.133797
       11      52.916667     305.591594
       12      51.883333     290.188646
       13      52.266667     307.590435
       14      53.516667     306.102060
       15      54.166667     314.188683
       16      55.600000     321.218333
       17      53.450000     309.883288
       18      53.200000     310.127590
       19      52.950000     307.314995
       20      51.266667     297.058992
       21      53.083333     306.225338
       22      51.383333     296.899653
       23      54.700000     315.381526
       24      52.066667     298.818410
       25      53.850000     302.957782
       26      49.550000     278.174945
       27      50.533333     282.686957
       28      53.100000     297.103192
       29      52.000000     289.046855
       30      50.133333     280.166192
       31      50.050000     280.392910

 Density error is 13234.642500569915
                          Error Threshold = 0.002843603867

       Energy                       Rydberg                            eV
   E_KohnSham            +1109.558648398439           +15096.319883397347
     E_Harris            -1872.066281114235           -25470.768456823385
      E_Fermi              -26.251997597204             -357.176751204279

 PW ALGORITHM --------------- ION=   1  ELEC=  87--------------------------------
  K-point    CG iter num      Time(Sec)
        1      55.266667     314.946862
        2      56.500000     327.243280
        3      54.550000     316.007107
        4      56.350000     326.887000
        5      54.583333     311.393703
        6      51.316667     290.532756
        7      56.716667     318.277526
        8      56.433333     330.525844
        9      55.316667     313.848673
       10      55.283333     321.018058
       11      52.400000     303.129465
       12      53.483333     309.619514
       13      55.416667     322.521470
       14      55.316667     322.099123
       15      55.466667     322.657381
       16      54.766667     316.265402
       17      54.366667     311.170738
       18      52.383333     299.958297
       19      53.083333     300.875643
       20      50.750000     301.145021
       21      53.416667     292.735283
       22      51.916667     294.282859
       23      56.466667     325.462144
       24      54.783333     316.810321
       25      52.216667     300.884230
       26      51.183333     297.108727
       27      50.983333     296.724348
       28      53.366667     311.334273
       29      55.350000     319.771888
       30      51.650000     293.088780
       31      52.383333     309.833531

 Density error is 13337.518695275714
                          Error Threshold = 0.002843603867

       Energy                       Rydberg                            eV
   E_KohnSham             -867.935883554358           -11808.873515003766
     E_Harris            -2025.362208182645           -27556.466545146195
      E_Fermi              -28.634147136870             -389.587558431817

 PW ALGORITHM --------------- ION=   1  ELEC=  88--------------------------------
  K-point    CG iter num      Time(Sec)
        1      42.716667     244.389737
        2      49.616667     292.814184
        3      52.100000     290.681336
        4      50.583333     287.375025
        5      49.083333     285.288424
        6      43.266667     253.600811
        7      50.366667     292.958732
        8      49.283333     283.245878
        9      46.850000     279.418386
       10      47.933333     265.412581
       11      49.466667     283.592777
       12      48.100000     279.165916
       13      48.083333     278.329437
       14      47.616667     277.210251
       15      48.266667     277.336738
       16      50.533333     277.236974
       17      46.916667     267.218187
       18      45.433333     264.116063
       19      48.383333     278.226417
       20      47.100000     272.653928
       21      48.416667     279.290862
       22      44.866667     257.593016
       23      50.333333     284.707209
       24      48.983333     285.564725
       25      49.016667     276.419624
       26      46.416667     285.679417
       27      45.966667     269.746507
       28      48.600000     306.768788
       29      49.600000     297.579439
       30      48.450000     289.798354
       31      43.050000     256.710663

 Density error is 13200.470324236314
                          Error Threshold = 0.002843603867

       Energy                       Rydberg                            eV
   E_KohnSham              +17.141849309679             +233.226824868996
     E_Harris            -1821.768421912512           -24786.430974478219
      E_Fermi              -25.465603782350             -346.477314450318

 PW ALGORITHM --------------- ION=   1  ELEC=  89--------------------------------
  K-point    CG iter num      Time(Sec)
        1      56.016667     335.261737
        2      55.283333     330.567210
        3      56.200000     336.240272
        4      55.000000     329.655427
        5      54.416667     325.646502
        6      51.150000     306.677418
        7      56.850000     339.667254
        8      56.833333     338.842296
        9      54.250000     323.809821
       10      54.583333     328.856607
       11      54.816667     330.980352
       12      54.083333     325.803272
       13      54.050000     321.680084
       14      54.633333     325.884970
       15      55.050000     326.169335
       16      56.983333     341.445368
       17      54.500000     331.212003
       18      53.033333     320.175434
       19      53.216667     319.848995
       20      52.916667     319.579833
       21      54.133333     326.198808
       22      52.333333     309.727998
       23      55.716667     331.103265
       24      53.950000     320.507262
       25      54.266667     320.544058
       26      52.766667     313.005345
       27      51.566667     307.788281
       28      54.333333     322.300839
       29      54.800000     327.354803
       30      51.833333     307.512704
       31      52.783333     315.016019

 Density error is 13324.976085216420
                          Error Threshold = 0.002843603867

       Energy                       Rydberg                            eV
   E_KohnSham              +74.189522650724            +1009.400239949913
     E_Harris            -2014.911142833527           -27414.272506227830
      E_Fermi              -28.473959725112             -387.408096884039

 PW ALGORITHM --------------- ION=   1  ELEC=  90--------------------------------
  K-point    CG iter num      Time(Sec)
        1      56.100000     336.381795
        2      57.266667     342.582232
        3      56.316667     338.081770
        4      54.416667     326.925325
        5      52.700000     314.027832
        6      51.766667     310.303685
        7      56.716667     339.520637
        8      55.200000     328.448449
        9      53.750000     320.659459
       10      52.983333     316.744452
       11      53.066667     316.923007
       12      53.316667     317.850187
       13      53.400000     318.766503
       14      54.616667     326.246179
       15      55.616667     331.041988
       16      56.583333     341.444016
       17      55.050000     329.627613
       18      51.983333     311.784152
       19      53.566667     320.096751
       20      52.116667     311.336527
       21      52.016667     310.372503
       22      50.500000     298.789374
       23      55.016667     327.176815
       24      54.200000     320.757059
       25      54.800000     322.772598
       26      50.583333     298.030864
       27      49.850000     291.103019
       28      53.283333     320.853740
       29      52.716667     320.957976
       30      51.266667     307.264563
       31      50.700000     318.323993

 Density error is 13265.741977052650
                          Error Threshold = 0.002843603867

       Energy                       Rydberg                            eV
   E_KohnSham             -948.398965214187           -12903.629904216728
     E_Harris            -1923.308885985845           -26167.959863439839
      E_Fermi              -27.062143244608             -368.199348218881

 PW ALGORITHM --------------- ION=   1  ELEC=  91--------------------------------
  K-point    CG iter num      Time(Sec)
        1      44.083333     272.162351
        2      50.733333     316.373399
        3      52.916667     319.107351
        4      50.633333     302.840093
        5      48.966667     291.184441
        6      43.633333     259.895223
        7      49.650000     294.788080
        8      49.800000     292.819647
        9      48.950000     292.186212
       10      48.750000     299.976141
       11      50.050000     311.077538
       12      50.933333     306.736763
       13      48.700000     289.773099
       14      48.733333     290.915867
       15      49.800000     296.164496
       16      53.216667     314.756876
       17      48.466667     287.546832
       18      48.233333     285.353242
       19      49.633333     292.068939
       20      46.750000     276.524137
       21      48.550000     284.134784
       22      47.366667     278.222529
       23      51.933333     325.683670
       24      48.250000     298.883831
       25      48.266667     282.865391
       26      46.666667     275.621200
       27      47.300000     278.793129
       28      49.000000     299.078604
       29      50.666667     296.294194
       30      48.216667     299.193647
       31      44.216667     267.687923

 Density error is 13251.985307317322
                          Error Threshold = 0.002843603867

       Energy                       Rydberg                            eV
   E_KohnSham             -948.628324534877           -12906.750497867532
     E_Harris            -1902.474094324607           -25884.487980204114
      E_Fermi              -26.722794487766             -363.582271516609

 PW ALGORITHM --------------- ION=   1  ELEC=  92--------------------------------
  K-point    CG iter num      Time(Sec)
        1      42.500000     262.137448
        2      49.450000     295.127138
        3      52.300000     310.973687
        4      49.666667     292.751985
        5      48.500000     285.667475
        6      43.833333     258.996024
        7      49.800000     289.273241
        8      49.266667     287.740231
        9      47.933333     280.212837
       10      48.100000     286.496343
       11      49.900000     304.482953
       12      49.483333     293.326833
