                                                                                     
                             WELCOME TO ABACUS v3.0                                  
                                                                                     
               'Atomic-orbital Based Ab-initio Computation at UStc'                  
                                                                                     
                     Website: http://abacus.ustc.edu.cn/                             
                                                                                     
    Version: Parallel, in development
    Processor Number is 16
    Start Time is Mon May 15 22:28:01 2023
                                                                                     
 ------------------------------------------------------------------------------------

 READING GENERAL INFORMATION
                           global_out_dir = OUT.oftest/
                           global_in_card = INPUT
                               pseudo_dir = 
                              orbital_dir = 
                                    DRANK = 1
                                    DSIZE = 16
                                   DCOLOR = 1
                                    GRANK = 1
                                    GSIZE = 1
 The esolver type has been set to : ofdft




 >>>>>>>>>>>>>>>>>>>>>>>>>>>>>>>>>>>>>>>>>>>>>>>>>>>>>>>>>>>>>>>>>>>>>>
 |                                                                    |
 | Reading atom information in unitcell:                              |
 | From the input file and the structure file we know the number of   |
 | different elments in this unitcell, then we list the detail        |
 | information for each element, especially the zeta and polar atomic |
 | orbital number for each element. The total atom number is counted. |
 | We calculate the nearest atom distance for each atom and show the  |
 | Cartesian and Direct coordinates for each atom. We list the file   |
 | address for atomic orbitals. The volume and the lattice vectors    |
 | in real and reciprocal space is also shown.                        |
 |                                                                    |
 <<<<<<<<<<<<<<<<<<<<<<<<<<<<<<<<<<<<<<<<<<<<<<<<<<<<<<<<<<<<<<<<<<<<<<




 READING UNITCELL INFORMATION
                                    ntype = 3
                 atom label for species 1 = Li
                 atom label for species 2 = Mg
                 atom label for species 3 = Al
                  lattice constant (Bohr) = 1.88973
              lattice constant (Angstrom) = 1

 READING ATOM TYPE 1
                               atom label = Li
                      L=0, number of zeta = 1
                      L=1, number of zeta = 1
                      L=2, number of zeta = 1
             number of atom for this type = 2
                      start magnetization = FALSE
                      start magnetization = FALSE

 READING ATOM TYPE 2
                               atom label = Mg
                      L=0, number of zeta = 1
                      L=1, number of zeta = 1
                      L=2, number of zeta = 1
             number of atom for this type = 34
                      start magnetization = FALSE
                      start magnetization = FALSE
                      start magnetization = FALSE
                      start magnetization = FALSE
                      start magnetization = FALSE
                      start magnetization = FALSE
                      start magnetization = FALSE
                      start magnetization = FALSE
                      start magnetization = FALSE
                      start magnetization = FALSE
                      start magnetization = FALSE
                      start magnetization = FALSE
                      start magnetization = FALSE
                      start magnetization = FALSE
                      start magnetization = FALSE
                      start magnetization = FALSE
                      start magnetization = FALSE
                      start magnetization = FALSE
                      start magnetization = FALSE
                      start magnetization = FALSE
                      start magnetization = FALSE
                      start magnetization = FALSE
                      start magnetization = FALSE
                      start magnetization = FALSE
                      start magnetization = FALSE
                      start magnetization = FALSE
                      start magnetization = FALSE
                      start magnetization = FALSE
                      start magnetization = FALSE
                      start magnetization = FALSE
                      start magnetization = FALSE
                      start magnetization = FALSE
                      start magnetization = FALSE
                      start magnetization = FALSE

 READING ATOM TYPE 3
                               atom label = Al
                      L=0, number of zeta = 1
                      L=1, number of zeta = 1
                      L=2, number of zeta = 1
             number of atom for this type = 22
                      start magnetization = FALSE
                      start magnetization = FALSE
                      start magnetization = FALSE
                      start magnetization = FALSE
                      start magnetization = FALSE
                      start magnetization = FALSE
                      start magnetization = FALSE
                      start magnetization = FALSE
                      start magnetization = FALSE
                      start magnetization = FALSE
                      start magnetization = FALSE
                      start magnetization = FALSE
                      start magnetization = FALSE
                      start magnetization = FALSE
                      start magnetization = FALSE
                      start magnetization = FALSE
                      start magnetization = FALSE
                      start magnetization = FALSE
                      start magnetization = FALSE
                      start magnetization = FALSE
                      start magnetization = FALSE
                      start magnetization = FALSE

                        TOTAL ATOM NUMBER = 58

 DIRECT COORDINATES
         atom                   x                   y                   z                 mag                  vx                  vy                  vz
     taud_Li1            0.634126                   0            0.818157                   0                   0                   0                   0
     taud_Li2            0.134126                 0.5            0.818157                   0                   0                   0                   0
     taud_Mg1            0.002089                   0            0.655152                   0                   0                   0                   0
     taud_Mg2            0.315552                   0            0.713353                   0                   0                   0                   0
     taud_Mg3            0.998692                   0            0.999139                   0                   0                   0                   0
     taud_Mg4            0.344424                   0            0.345128                   0                   0                   0                   0
     taud_Mg5            0.602992                   0            0.285884                   0                   0                   0                   0
     taud_Mg6            0.541361            0.857005             4.6e-05                   0                   0                   0                   0
     taud_Mg7            0.445283            0.842397            0.602896                   0                   0                   0                   0
     taud_Mg8            0.840704            0.842134            0.400008                   0                   0                   0                   0
     taud_Mg9            0.827585             0.82815            0.999621                   0                   0                   0                   0
    taud_Mg10            0.514311            0.800976            0.315465                   0                   0                   0                   0
    taud_Mg11            0.699391            0.300414             0.68401                   0                   0                   0                   0
    taud_Mg12            0.699391            0.699586             0.68401                   0                   0                   0                   0
    taud_Mg13            0.514311            0.199024            0.315465                   0                   0                   0                   0
    taud_Mg14            0.827585             0.17185            0.999621                   0                   0                   0                   0
    taud_Mg15            0.840704            0.157866            0.400008                   0                   0                   0                   0
    taud_Mg16            0.445283            0.157603            0.602896                   0                   0                   0                   0
    taud_Mg17            0.541361            0.142995             4.6e-05                   0                   0                   0                   0
    taud_Mg18            0.502089                 0.5            0.655152                   0                   0                   0                   0
    taud_Mg19            0.815552                 0.5            0.713353                   0                   0                   0                   0
    taud_Mg20            0.498692                 0.5            0.999139                   0                   0                   0                   0
    taud_Mg21            0.844424                 0.5            0.345128                   0                   0                   0                   0
    taud_Mg22            0.102992                 0.5            0.285884                   0                   0                   0                   0
    taud_Mg23            0.041361            0.357005             4.6e-05                   0                   0                   0                   0
    taud_Mg24            0.945283            0.342397            0.602896                   0                   0                   0                   0
    taud_Mg25            0.340704            0.342134            0.400008                   0                   0                   0                   0
    taud_Mg26            0.327585             0.32815            0.999621                   0                   0                   0                   0
    taud_Mg27            0.014311            0.300976            0.315465                   0                   0                   0                   0
    taud_Mg28            0.199391            0.800414             0.68401                   0                   0                   0                   0
    taud_Mg29            0.199391            0.199586             0.68401                   0                   0                   0                   0
    taud_Mg30            0.014311            0.699024            0.315465                   0                   0                   0                   0
    taud_Mg31            0.327585             0.67185            0.999621                   0                   0                   0                   0
    taud_Mg32            0.340704            0.657866            0.400008                   0                   0                   0                   0
    taud_Mg33            0.945283            0.657603            0.602896                   0                   0                   0                   0
    taud_Mg34            0.041361            0.642995             4.6e-05                   0                   0                   0                   0
     taud_Al1            0.815193                   0             0.17872                   0                   0                   0                   0
     taud_Al2            0.276073            0.909008            0.002438                   0                   0                   0                   0
     taud_Al3            0.726406            0.907307            0.631115                   0                   0                   0                   0
     taud_Al4            0.590899            0.407218            0.366783                   0                   0                   0                   0
     taud_Al5            0.498963            0.318538            0.815372                   0                   0                   0                   0
     taud_Al6            0.682493            0.317462            0.184483                   0                   0                   0                   0
     taud_Al7            0.682493            0.682538            0.184483                   0                   0                   0                   0
     taud_Al8            0.498963            0.681462            0.815372                   0                   0                   0                   0
     taud_Al9            0.590899            0.592782            0.366783                   0                   0                   0                   0
    taud_Al10            0.726406           0.0926925            0.631115                   0                   0                   0                   0
    taud_Al11            0.276073           0.0909925            0.002438                   0                   0                   0                   0
    taud_Al12            0.315193                 0.5             0.17872                   0                   0                   0                   0
    taud_Al13            0.776073            0.409008            0.002438                   0                   0                   0                   0
    taud_Al14            0.226406            0.407307            0.631115                   0                   0                   0                   0
    taud_Al15            0.090899            0.907218            0.366783                   0                   0                   0                   0
    taud_Al16            0.998963            0.818538            0.815372                   0                   0                   0                   0
    taud_Al17            0.182493            0.817462            0.184483                   0                   0                   0                   0
    taud_Al18            0.182493            0.182538            0.184483                   0                   0                   0                   0
    taud_Al19            0.998963            0.181462            0.815372                   0                   0                   0                   0
    taud_Al20            0.090899            0.092782            0.366783                   0                   0                   0                   0
    taud_Al21            0.226406            0.592693            0.631115                   0                   0                   0                   0
    taud_Al22            0.776073            0.590992            0.002438                   0                   0                   0                   0


                          Volume (Bohr^3) = 7889.25
                             Volume (A^3) = 1169.06

 Lattice vectors: (Cartesian coordinate: in unit of a_0)
                   +0            +10.5483                  +0
             +14.7262                  +0                  +0
                   +0            -5.16657            -7.52599
 Reciprocal vectors: (Cartesian coordinate: in unit of 2 pi/a_0)
                   +0          +0.0948018          -0.0650811
            +0.067906                  -0                  +0
                   +0                  -0           -0.132873




 >>>>>>>>>>>>>>>>>>>>>>>>>>>>>>>>>>>>>>>>>>>>>>>>>>>>>>>>>>>>>>>>>>>>>>
 |                                                                    |
 | Reading pseudopotentials files:                                    |
 | The pseudopotential file is in UPF format. The 'NC' indicates that |
 | the type of pseudopotential is 'norm conserving'. Functional of    |
 | exchange and correlation is decided by 4 given parameters in UPF   |
 | file.  We also read in the 'core correction' if there exists.      |
 | Also we can read the valence electrons number and the maximal      |
 | angular momentum used in this pseudopotential. We also read in the |
 | trail wave function, trail atomic density and local-pseudopotential|
 | on logrithmic grid. The non-local pseudopotential projector is also|
 | read in if there is any.                                           |
 |                                                                    |
 <<<<<<<<<<<<<<<<<<<<<<<<<<<<<<<<<<<<<<<<<<<<<<<<<<<<<<<<<<<<<<<<<<<<<<




                PAO radial cut off (Bohr) = 16

 Read in pseudopotential file is li.gga.psp.1
                     pseudopotential type = 
          exchange-correlation functional = XC_GGA_X_PBE+XC_GGA_C_PBE
                 nonlocal core correction = 0
                        valence electrons = 1
                                     lmax = 0
                           number of zeta = 0
                     number of projectors = 0
                PAO radial cut off (Bohr) = 16

 Read in pseudopotential file is mg.gga.psp
                     pseudopotential type = 
          exchange-correlation functional = XC_GGA_X_PBE+XC_GGA_C_PBE
                 nonlocal core correction = 0
                        valence electrons = 2
                                     lmax = 0
                           number of zeta = 0
                     number of projectors = 0
                PAO radial cut off (Bohr) = 16

 Read in pseudopotential file is al.gga.psp
                     pseudopotential type = 
          exchange-correlation functional = XC_GGA_X_PBE+XC_GGA_C_PBE
                 nonlocal core correction = 0
                        valence electrons = 3
                                     lmax = 0
                           number of zeta = 0
                     number of projectors = 0
Notice: symbol 'Li_locpsp' is not an element symbol!!!! set the covalent radius to be 0.
Notice: symbol 'mg_locpsp' is not an element symbol!!!! set the covalent radius to be 0.
Notice: symbol 'al_locpsp' is not an element symbol!!!! set the covalent radius to be 0.
     initial pseudo atomic orbital number = 0
                                   NLOCAL = 522




 >>>>>>>>>>>>>>>>>>>>>>>>>>>>>>>>>>>>>>>>>>>>>>>>>>>>>>>>>>>>>>>>>>>>>>
 |                                                                    |
 | Setup plane waves of charge/potential:                             |
 | Use the energy cutoff and the lattice vectors to generate the      |
 | dimensions of FFT grid. The number of FFT grid on each processor   |
 | is 'nrxx'. The number of plane wave basis in reciprocal space is   |
 | different for charege/potential and wave functions. We also set    |
 | the 'sticks' for the parallel of FFT. The number of plane waves    |
 | is 'npw' in each processor.                                        |
 <<<<<<<<<<<<<<<<<<<<<<<<<<<<<<<<<<<<<<<<<<<<<<<<<<<<<<<<<<<<<<<<<<<<<<





 SETUP THE PLANE WAVE BASIS
 energy cutoff for charge/potential (unit:Ry) = 235.196
          [fft grid for charge/potential] = 100, 135, 90
                      [fft grid division] = 1, 1, 1
      [big fft grid for charge/potential] = 100, 135, 90
                                     nbxx = 81000
                                     nrxx = 81000

 SETUP PLANE WAVES FOR CHARGE/POTENTIAL
                    number of plane waves = 1215000
                         number of sticks = 13500

 PARALLEL PW FOR CHARGE/POTENTIAL
     PROC   COLUMNS(POT)             PW
        1            844          75960
        2            844          75960
        3            844          75960
        4            844          75960
        5            844          75960
        6            844          75960
        7            844          75960
        8            844          75960
        9            844          75960
       10            844          75960
       11            844          75960
       12            843          75870
       13            843          75870
       14            843          75870
       15            843          75870
       16            844          75960
 --------------- sum -------------------
       16          13500        1215000
                            number of |g| = 66345
                                  max |g| = 124.881
                                  min |g| = 0.00461122

 SETUP THE ELECTRONS NUMBER
            electron number of element Li = 1
      total electron number of element Li = 2
            electron number of element Mg = 2
      total electron number of element Mg = 68
            electron number of element Al = 3
      total electron number of element Al = 66
            AUTOSET number of electrons:  = 136
 DONE : SETUP UNITCELL Time : 0.259728 (SEC)





 >>>>>>>>>>>>>>>>>>>>>>>>>>>>>>>>>>>>>>>>>>>>>>>>>>>>>>>>>>>>>>>>>>>>>>
 |                                                                    |
 | Doing symmetry analysis:                                           |
 | We calculate the norm of 3 vectors and the angles between them,    |
 | the type of Bravais lattice is given. We can judge if the unticell |
 | is a primitive cell. Finally we give the point group operation for |
 | this unitcell. We we use the point group operations to do symmetry |
 | analysis on given k-point mesh and the charge density.             |
 |                                                                    |
 <<<<<<<<<<<<<<<<<<<<<<<<<<<<<<<<<<<<<<<<<<<<<<<<<<<<<<<<<<<<<<<<<<<<<<




 LATTICE VECTORS: (CARTESIAN COORDINATE: IN UNIT OF A0)
                   +0            +10.5483                  +0
             +14.7262                  +0                  +0
                   +0            -5.16657            -7.52599
                       right hand lattice = 1
                                   NORM_A = 10.5483
                                   NORM_B = 14.7262
                                   NORM_C = 9.12874
                           ALPHA (DEGREE) = 90
                           BETA  (DEGREE) = 90
                           GAMMA (DEGREE) = 124.469
                             BRAVAIS TYPE = 12
                     BRAVAIS LATTICE NAME = 12. Monoclinic P (simple)
                                    IBRAV = 12
                                  BRAVAIS = SIMPLE MONOLINIC CELL
                       LATTICE CONSTANT A = 14.7262
                                B/A RATIO = 0.619896
                                C/A RATIO = 0.716295
                                COS(BETA) = 0
                                    ibrav = 12
                        ROTATION MATRICES = 4
              PURE POINT GROUP OPERATIONS = 4
                   SPACE GROUP OPERATIONS = 4
                                       C2 = 1
                                       C3 = 0
                                       C4 = 0
                                       C6 = 0
                                       S1 = 1
                                       S3 = 0
                                       S4 = 0
                                       S6 = 0
                              POINT GROUP = C_2h
Warning : If the optimal symmetric configuration is not the input configuration, 
you have to manually change configurations, ABACUS would only calculate the input structure.
 DONE : SYMMETRY Time : 0.290972 (SEC)





 >>>>>>>>>>>>>>>>>>>>>>>>>>>>>>>>>>>>>>>>>>>>>>>>>>>>>>>>>>>>>>>>>>>>>>
 |                                                                    |
 | Setup K-points                                                     |
 | We setup the k-points according to input parameters.               |
 | The reduced k-points are set according to symmetry operations.     |
 | We treat the spin as another set of k-points.                      |
 |                                                                    |
 <<<<<<<<<<<<<<<<<<<<<<<<<<<<<<<<<<<<<<<<<<<<<<<<<<<<<<<<<<<<<<<<<<<<<<





 SETUP K-POINTS
                                    nspin = 1
                   Input type of k points = Monkhorst-Pack(Gamma)
                                   nkstot = 1
                               nkstot_ibz = 1
      IBZ             DirectX             DirectY             DirectZ              Weight    ibz2bz
        1                   0                   0                   0                   1         0
                               nkstot now = 1

  KPOINTS            DIRECT_X            DIRECT_Y            DIRECT_Z              WEIGHT
        1                   0                   0                   0                   1

           k-point number in this process = 1
       minimum distributed K point number = 1

  KPOINTS         CARTESIAN_X         CARTESIAN_Y         CARTESIAN_Z              WEIGHT
        1                   0                   0                   0                   2

  KPOINTS            DIRECT_X            DIRECT_Y            DIRECT_Z              WEIGHT
        1                   0                   0                   0                   2
 DONE : INIT K-POINTS Time : 0.305275 (SEC)

 DONE : INIT BASIS Time : 0.700164 (SEC)

 DONE : INIT PHI Time : 0.700211 (SEC)


 SETUP NONLOCAL PSEUDOPOTENTIALS IN PLANE WAVE BASIS
 Li non-local projectors:
 Mg non-local projectors:
 Al non-local projectors:
      TOTAL NUMBER OF NONLOCAL PROJECTORS = 0

 nhm = 0, not allocate some matrix. DONE : LOCAL POTENTIAL Time : 13.6355 (SEC)


 Init Non-Local PseudoPotential table : 
 Init Non-Local-Pseudopotential done.
 DONE : NON-LOCAL POTENTIAL Time : 13.6356 (SEC)

Successful completion of Potential's registration : local
Successful completion of Potential's registration : hartree
Successful completion of Potential's registration : xc
                                 init_chg = atomic
 DONE : INIT POTENTIAL Time : 28.823 (SEC)

 DONE : INIT OPTIMIZATION Time : 28.8235 (SEC)

 DONE : INIT KEDF Time : 28.8552 (SEC)


 charge density convergence is achieved
 final etot is -2095.9 eV



 ><><><><><><><><><><><><><><><><><><><><><><

    TOTAL-FORCE (eV/Angstrom)

 ><><><><><><><><><><><><><><><><><><><><><><

     atom              x              y              z
      Li1              0    -0.11717517    +0.01975011
      Li2              0    -0.11731726    +0.01963529
      Mg1              0    -0.05468350    -0.01501200
      Mg2              0    -0.39732325    -0.06967207
      Mg3              0    +0.25427813    -0.10334348
      Mg4              0    +0.00259024    +0.10350236
      Mg5              0    -0.15564003    +0.12504334
      Mg6    -0.02093229    -0.02707630    -0.11230717
      Mg7    -0.22156470    -0.16275069    +0.31903857
      Mg8    +0.02054979    -0.05245479    -0.05442117
      Mg9    -0.31658792    +0.05824843    -0.12512920
     Mg10    -0.13374802    +0.03256151    -0.02179842
     Mg11    -0.21545623    +0.13742411    -0.05814059
     Mg12    +0.21545623    +0.13742411    -0.05814059
     Mg13    +0.13374802    +0.03256151    -0.02179842
     Mg14    +0.31658792    +0.05824843    -0.12512920
     Mg15    -0.02054979    -0.05245479    -0.05442117
     Mg16    +0.22156470    -0.16275069    +0.31903857
     Mg17    +0.02093229    -0.02707630    -0.11230717
     Mg18              0    -0.05424325    -0.01432274
     Mg19              0    -0.39594577    -0.06744242
     Mg20              0    +0.25500670    -0.10415190
     Mg21              0    +0.00224541    +0.10440900
     Mg22              0    -0.15809604    +0.12391137
     Mg23    -0.01719780    -0.02723599    -0.11235903
     Mg24    -0.21656995    -0.16300265    +0.31791619
     Mg25    +0.02408339    -0.05127650    -0.05407986
     Mg26    -0.31086479    +0.05610387    -0.12599549
     Mg27    -0.13525238    +0.03255579    -0.02286437
     Mg28    -0.21265347    +0.13581023    -0.05526871
     Mg29    +0.21265347    +0.13581023    -0.05526871
     Mg30    +0.13525238    +0.03255579    -0.02286437
     Mg31    +0.31086479    +0.05610387    -0.12599549
     Mg32    -0.02408339    -0.05127650    -0.05407986
     Mg33    +0.21656995    -0.16300265    +0.31791619
     Mg34    +0.01719780    -0.02723599    -0.11235903
      Al1              0    +0.44157167    -0.84915364
      Al2    -0.05433964    -0.36096642    +0.09024565
      Al3    +0.04694528    +0.46996887    -0.01015217
      Al4    +0.44792302    -0.00412296    +0.38501884
      Al5    +0.23938565    -0.09339749    -0.39470515
      Al6    +0.28807832    +0.01778349    +0.37585945
      Al7    -0.28807832    +0.01778349    +0.37585945
      Al8    -0.23938565    -0.09339749    -0.39470515
      Al9    -0.44792302    -0.00412296    +0.38501884
     Al10    -0.04694528    +0.46996887    -0.01015217
     Al11    +0.05433964    -0.36096642    +0.09024565
     Al12              0    +0.44159446    -0.84901394
     Al13    -0.05318375    -0.36109845    +0.09016650
     Al14    +0.04672910    +0.46961273    -0.00973018
     Al15    +0.44842919    -0.00441848    +0.38521758
     Al16    +0.23920809    -0.09318941    -0.39426159
     Al17    +0.28858415    +0.01748993    +0.37568070
     Al18    -0.28858415    +0.01748993    +0.37568070
     Al19    -0.23920809    -0.09318941    -0.39426159
     Al20    -0.44842919    -0.00441848    +0.38521758
     Al21    -0.04672910    +0.46961273    -0.00973018
     Al22    +0.05318375    -0.36109845    +0.09016650


 ><><><><><><><><><><><><><><><><><><><><><><

 TOTAL-STRESS (KBAR)

 ><><><><><><><><><><><><><><><><><><><><><><

     -722.231557      +0.000000      +0.000000
       +0.000000    -727.317006      +4.538264
       +0.000000      +4.538264    -728.918273
 TOTAL-PRESSURE: -726.155612 KBAR


 --------------------------------------------
 !FINAL_ETOT_IS -2095.8967605157649814 eV
 --------------------------------------------






  |CLASS_NAME---------|NAME---------------|TIME(Sec)-----|CALLS----|AVG------|PER%-------
                                      total    +4831.30245        21   +230.06   +100.00%
                 Driver         driver_line    +4831.29633         1  +4831.30   +100.00%
               PW_Basis      setuptransform       +0.22899         1     +0.23     +0.00%
               PW_Basis  setup_struc_factor       +0.39478         1     +0.39     +0.01%
              ppcell_vl           init_vloc      +12.93503         1    +12.94     +0.27%
                 Charge          atomic_rho      +14.94505         1    +14.95     +0.31%
               PW_Basis          recip2real     +321.98400     41111     +0.01     +6.66%
               PW_Basis    gathers_scatterp     +145.55189     41111     +0.00     +3.01%
              Potential            init_pot       +0.23850         1     +0.24     +0.00%
              Potential  update_from_charge     +455.06829      2056     +0.22     +9.42%
              Potential           cal_v_eff     +455.04011      2056     +0.22     +9.42%
           H_Hartree_pw           v_hartree      +46.29998      2056     +0.02     +0.96%
               PW_Basis          real2recip     +392.27718     41113     +0.01     +8.12%
               PW_Basis    gatherp_scatters     +207.63902     41113     +0.01     +4.30%
                  PotXC           cal_v_eff     +405.73703      2056     +0.20     +8.40%
          XC_Functional                v_xc    +2388.76161      1028     +2.32    +49.44%
          XC_Functional          v_xc_libxc     +404.63868      2056     +0.20     +8.38%
             ESolver_OF                 Run    +4778.29044         1  +4778.29    +98.90%
                KEDF_vW        vw_potential      +40.29228      2055     +0.02     +0.83%
                 Forces       cal_force_loc       +0.33340         1     +0.33     +0.01%
                 Forces        cal_force_ew       +0.31873         1     +0.32     +0.01%
           OF_Stress_PW          cal_stress      +23.49336         1    +23.49     +0.49%
            Stress_Func          stress_ewa       +0.34881         1     +0.35     +0.01%
            Stress_Func          stress_gga       +0.18510         1     +0.19     +0.00%
            Stress_Func          stress_loc      +22.94879         1    +22.95     +0.48%
 ----------------------------------------------------------------------------------------

 CLASS_NAME---------|NAME---------------|MEMORY(MB)--------
                                         +10.0402
             PW_Basis           struc_fac        +3.4772
 ----------------------------------------------------------

 Start  Time  : Mon May 15 22:28:01 2023
 Finish Time  : Mon May 15 23:48:43 2023
 Total  Time  : 1 h 20 mins 42 secs 
