 *********************************************************
 *                                                       *
 *                  WELCOME TO ABACUS v3.0               *
 *                                                       *
 *            'Atomic-orbital Based Ab-initio            *
 *                  Computation at UStc'                 *
 *                                                       *
 *          Website: http://abacus.ustc.edu.cn/          *
 *                                                       *
 *********************************************************
 Mon Apr 17 14:55:13 2023
 MAKE THE DIR         : OUT.blpstest/
Notice: symbol 'Li_locpsp' is not an element symbol!!!! set the covalent radius to be 0.
 UNIFORM GRID DIM     : 27 * 27 * 27
 UNIFORM GRID DIM(BIG): 27 * 27 * 27
func,idXC_GGA_X_PBE 101
func,idXC_GGA_C_PBE 130
 DONE(0.105129   SEC) : SETUP UNITCELL
 DONE(0.160512   SEC) : SYMMETRY
 DONE(0.503964   SEC) : INIT K-POINTS
 ---------------------------------------------------------
 Self-consistent calculations for electrons
 ---------------------------------------------------------
 SPIN    KPOINTS         PROCESSORS  
 1       256             1           
 ---------------------------------------------------------
 Use plane wave basis
 ---------------------------------------------------------
 ELEMENT NATOM       XC          
 Li      1           
 ---------------------------------------------------------
 Initial plane wave basis and FFT box
 ---------------------------------------------------------
 DONE(0.504955   SEC) : INIT BASIS
 DONE(0.504982   SEC) : INIT PHI
 DONE(0.548402   SEC) : LOCAL POTENTIAL
 DONE(0.548443   SEC) : NON-LOCAL POTENTIAL
 START CHARGE      : atomic
 DONE(0.626581   SEC) : INIT POTENTIAL
 DONE(0.626659   SEC) : INIT OPTIMIZATION
 DONE(0.627596   SEC) : INIT KEDF
======================== Running OFDFT ========================
Iter        Etot(Ha)          Theta      PotNorm     deltaE(Ha)
0     -2.665657358732e-01   2.000e-01   7.661e-02   -2.666e-01  
1     -2.752875497294e-01   5.124e-02   7.763e-02   -8.722e-03  
2     -2.769069543444e-01   2.840e-02   3.693e-02   -1.619e-03  
3     -2.771658205112e-01   8.064e-03   1.115e-02   -2.589e-04  
4     -2.772126114399e-01   4.726e-03   6.172e-03   -4.679e-05  
5     -2.772204176563e-01   1.023e-03   3.397e-03   -7.806e-06  
6     -2.772255245149e-01   2.199e-03   2.649e-04   -5.107e-06  
7     -2.772255332791e-01   3.379e-05   2.458e-05   -8.764e-09  
8     -2.772255333928e-01   5.081e-06   3.970e-06   -1.137e-10  

  |CLASS_NAME---------|NAME---------------|TIME(Sec)-----|CALLS----|AVG------|PER%-------
                       total               13.331         21        0.63      1e+02     %
   Driver              driver_line         13.319         1         13        1e+02     %
   PW_Basis            recip2real          2.3548         1898      0.0012    18        %
   PW_Basis            gathers_scatterp    0.18299        1898      9.6e-05   1.4       %
   Potential           update_from_charge  7.7002         211       0.036     58        %
   Potential           cal_v_eff           7.698          211       0.036     58        %
   H_Hartree_pw        v_hartree           0.61622        211       0.0029    4.6       %
   PW_Basis            real2recip          2.7537         2318      0.0012    21        %
   PW_Basis            gatherp_scatters    0.20359        2318      8.8e-05   1.5       %
   PotXC               cal_v_eff           7.0415         211       0.033     53        %
   XC_Functional       v_xc                6.3996         106       0.06      48        %
   XC_Functional       v_xc_libxc          7.001          211       0.033     53        %
   ESolver_OF          Run                 12.702         1         13        95        %
   KEDF_TF             tf_potential        0.85953        210       0.0041    6.4       %
   KEDF_WT             wt_potential        3.2223         210       0.015     24        %
   KEDF_vW             vw_potential        0.66263        210       0.0032    5         %
 ----------------------------------------------------------------------------------------

 START  Time  : Mon Apr 17 14:55:13 2023
 FINISH Time  : Mon Apr 17 14:55:26 2023
 TOTAL  Time  : 13
 SEE INFORMATION IN : OUT.blpstest/
