 *********************************************************
 *                                                       *
 *                  WELCOME TO ABACUS v3.0               *
 *                                                       *
 *            'Atomic-orbital Based Ab-initio            *
 *                  Computation at UStc'                 *
 *                                                       *
 *          Website: http://abacus.ustc.edu.cn/          *
 *                                                       *
 *********************************************************
 Wed Apr 26 09:43:29 2023
 MAKE THE DIR         : OUT.oftest/
Notice: symbol 'Li_locpsp' is not an element symbol!!!! set the covalent radius to be 0.
 UNIFORM GRID DIM     : 45 * 45 * 45
 UNIFORM GRID DIM(BIG): 45 * 45 * 45
func,idXC_GGA_X_PBE 101
func,idXC_GGA_C_PBE 130
 DONE(0.279491   SEC) : SETUP UNITCELL
 DONE(0.339862   SEC) : SYMMETRY
 DONE(0.340115   SEC) : INIT K-POINTS
 ---------------------------------------------------------
 Self-consistent calculations for electrons
 ---------------------------------------------------------
 SPIN    KPOINTS         PROCESSORS  
 1       1               1           
 ---------------------------------------------------------
 Use plane wave basis
 ---------------------------------------------------------
 ELEMENT NATOM       XC          
 Li      1           
 ---------------------------------------------------------
 Initial plane wave basis and FFT box
 ---------------------------------------------------------
 DONE(0.344068   SEC) : INIT BASIS
 DONE(0.344098   SEC) : INIT PHI
 DONE(0.471063   SEC) : LOCAL POTENTIAL
 DONE(0.471105   SEC) : NON-LOCAL POTENTIAL
 START CHARGE      : atomic
 DONE(0.770914   SEC) : INIT POTENTIAL
 DONE(0.771395   SEC) : INIT OPTIMIZATION
Default type: double
nnode = 10
nlayer = 3
feg_net_F = 0.540933
 DONE(0.834322   SEC) : INIT KEDF
======================== Running OFDFT ========================
Iter        Etot(Ha)          Theta      PotNorm     deltaE(Ha)
0     -2.673580804022e-01   2.000e-01   5.836e-02   -2.674e-01  
1     -2.738676015559e-01   4.154e-02   5.008e-02   -6.510e-03  
2     -2.743054774201e-01   8.249e-03   3.168e-02   -4.379e-04  
3     -2.747696360122e-01   1.729e-02   3.442e-02   -4.642e-04  
4     -2.748315770583e-01   1.591e-03   9.485e-03   -6.194e-05  
5     -2.748586342106e-01   3.341e-03   1.225e-02   -2.706e-05  
6     -2.748696452225e-01   6.909e-04   4.444e-03   -1.101e-05  
7     -2.748860456964e-01   4.043e-03   2.128e-03   -1.640e-05  
8     -2.748867401702e-01   5.098e-04   4.395e-04   -6.945e-07  
9     -2.748867724436e-01   6.178e-05   2.414e-04   -3.227e-08  

  |CLASS_NAME---------|NAME---------------|TIME(Sec)-----|CALLS----|AVG------|PER%-------
                       total               646.56         21        31        1e+02     %
   Driver              driver_line         646.55         1         6.5e+02   1e+02     %
   PW_Basis            setuptransform      0.23414        1         0.23      0.036     %
   ppcell_vl           init_vloc           0.12681        1         0.13      0.02      %
   Charge              atomic_rho          0.13991        1         0.14      0.022     %
   PW_Basis            recip2real          17.757         5148      0.0034    2.7       %
   PW_Basis            gathers_scatterp    1.5127         5148      0.00029   0.23      %
   Potential           init_pot            0.15441        1         0.15      0.024     %
   Potential           update_from_charge  25.22          258       0.098     3.9       %
   Potential           cal_v_eff           25.213         258       0.098     3.9       %
   H_Hartree_pw        v_hartree           2.0291         258       0.0079    0.31      %
   PW_Basis            real2recip          17.075         5148      0.0033    2.6       %
   PW_Basis            gatherp_scatters    0.98335        5148      0.00019   0.15      %
   PotXC               cal_v_eff           23.105         258       0.09      3.6       %
   XC_Functional       v_xc                321.52         129       2.5       50        %
   XC_Functional       v_xc_libxc          23.069         258       0.089     3.6       %
   ESolver_OF          Run                 645.72         1         6.5e+02   1e+02     %
   KEDF_vW             vw_potential        1.974          257       0.0077    0.31      %
 ----------------------------------------------------------------------------------------

 START  Time  : Wed Apr 26 09:43:29 2023
 FINISH Time  : Wed Apr 26 09:54:16 2023
 TOTAL  Time  : 6.5e+02
 SEE INFORMATION IN : OUT.oftest/
