 *********************************************************
 *                                                       *
 *                  WELCOME TO ABACUS v3.0               *
 *                                                       *
 *            'Atomic-orbital Based Ab-initio            *
 *                  Computation at UStc'                 *
 *                                                       *
 *          Website: http://abacus.ustc.edu.cn/          *
 *                                                       *
 *********************************************************
 Mon Mar  6 13:47:53 2023
 MAKE THE DIR         : OUT.blpstest/
Notice: symbol 'Li_locpsp' is not an element symbol!!!! set the covalent radius to be 0.
Notice: symbol 'al_locpsp' is not an element symbol!!!! set the covalent radius to be 0.
 UNIFORM GRID DIM     : 32 * 32 * 32
 UNIFORM GRID DIM(BIG): 32 * 32 * 32
func,idXC_GGA_X_PBE 101
func,idXC_GGA_C_PBE 130
 DONE(0.132433   SEC) : SETUP UNITCELL
 DONE(0.162117   SEC) : SYMMETRY
 DONE(0.325583   SEC) : INIT K-POINTS
 ---------------------------------------------------------
 Self-consistent calculations for electrons
 ---------------------------------------------------------
 SPIN    KPOINTS         PROCESSORS  
 1       286             1           
 ---------------------------------------------------------
 Use plane wave basis
 ---------------------------------------------------------
 ELEMENT NATOM       XC          
 Li      1           
 Al      3           
 ---------------------------------------------------------
 Initial plane wave basis and FFT box
 ---------------------------------------------------------
 DONE(0.413647   SEC) : INIT PLANEWAVE
 MEMORY FOR PSI (MB)  : 77.1383
 DONE(0.459428   SEC) : LOCAL POTENTIAL
 DONE(0.459454   SEC) : NON-LOCAL POTENTIAL
 DONE(0.459497   SEC) : INIT BASIS
 START CHARGE      : atomic
 DONE(0.509568   SEC) : INIT SCF
 ITER   ETOT(eV)       EDIFF(eV)      DRHO       TIME(s)    
 CG1    -1.786235e+02  0.000000e+00   7.138e-01  2.055e+01  
 CG2    -1.806681e+02  -2.044650e+00  5.756e-02  7.899e+00  
 CG3    -1.808496e+02  -1.814812e-01  7.228e-03  9.135e+00  
 CG4    -1.808672e+02  -1.758693e-02  2.654e-05  9.128e+00  
 CG5    -1.808681e+02  -8.892481e-04  1.406e-05  1.322e+01  
 CG6    -1.808681e+02  -4.137290e-05  3.104e-07  8.544e+00  
 CG7    -1.808681e+02  -1.464995e-06  6.880e-08  1.028e+01  
 CG8    -1.808681e+02  -6.150535e-08  5.420e-09  7.434e+00  
 CG9    -1.808681e+02  -1.550380e-08  7.491e-11  9.786e+00  

  |CLASS_NAME---------|NAME---------------|TIME(Sec)-----|CALLS----|AVG------|PER%-------
                       total               96.504         17        5.7       1e+02     %
   Driver              driver_line         96.493         1         96        1e+02     %
   PW_Basis            setuptransform      0.11044        1         0.11      0.11      %
   ESolver_KS_PW       Run                 96.033         1         96        1e+02     %
   Potential           update_from_charge  0.21976        10        0.022     0.23      %
   Potential           cal_v_eff           0.2191         10        0.022     0.23      %
   PotXC               cal_v_eff           0.2058         10        0.021     0.21      %
   XC_Functional       v_xc                62.972         5         13        65        %
   XC_Functional       v_xc_libxc          0.20342        10        0.02      0.21      %
   HSolverPW           solve               95.732         9         11        99        %
   DiagoIterAssist     diagH_subspace      16.111         2574      0.0063    17        %
   OperatorPW          hPsi                82.898         91992     0.0009    86        %
   Operator            EkineticPW          0.46996        91992     5.1e-06   0.49      %
   Operator            VeffPW              82.176         91992     0.00089   85        %
   PW_Basis_K          recip2real          46.034         126306    0.00036   48        %
   PW_Basis_K          gathers_scatterp    5.2762         126306    4.2e-05   5.5       %
   PW_Basis_K          real2recip          36.268         112584    0.00032   38        %
   PW_Basis_K          gatherp_scatters    1.2308         112584    1.1e-05   1.3       %
   DiagoIterAssist     LAPACK_subspace     0.1173         2574      4.6e-05   0.12      %
   DiagoCG             diag_once           73.606         2574      0.029     76        %
   ElecStatePW         psiToRho            5.1346         9         0.57      5.3       %
 ----------------------------------------------------------------------------------------

 START  Time  : Mon Mar  6 13:47:53 2023
 FINISH Time  : Mon Mar  6 13:49:30 2023
 TOTAL  Time  : 97
 SEE INFORMATION IN : OUT.blpstest/
