 *********************************************************
 *                                                       *
 *                  WELCOME TO ABACUS v3.0               *
 *                                                       *
 *            'Atomic-orbital Based Ab-initio            *
 *                  Computation at UStc'                 *
 *                                                       *
 *          Website: http://abacus.ustc.edu.cn/          *
 *                                                       *
 *********************************************************
 Mon Mar  6 13:58:28 2023
 MAKE THE DIR         : OUT.blpstest/
Notice: symbol 'Li_locpsp' is not an element symbol!!!! set the covalent radius to be 0.
Notice: symbol 'mg_locpsp' is not an element symbol!!!! set the covalent radius to be 0.
 UNIFORM GRID DIM     : 54 * 54 * 54
 UNIFORM GRID DIM(BIG): 54 * 54 * 54
func,idXC_GGA_X_PBE 101
func,idXC_GGA_C_PBE 130
 DONE(0.454159   SEC) : SETUP UNITCELL
 DONE(0.489801   SEC) : SYMMETRY
 DONE(0.506959   SEC) : INIT K-POINTS
 ---------------------------------------------------------
 Self-consistent calculations for electrons
 ---------------------------------------------------------
 SPIN    KPOINTS         PROCESSORS  
 1       84              1           
 ---------------------------------------------------------
 Use plane wave basis
 ---------------------------------------------------------
 ELEMENT NATOM       XC          
 Li      12          
 Mg      4           
 ---------------------------------------------------------
 Initial plane wave basis and FFT box
 ---------------------------------------------------------
 DONE(0.640313   SEC) : INIT PLANEWAVE
 MEMORY FOR PSI (MB)  : 312.554
 DONE(1.23048    SEC) : LOCAL POTENTIAL
 DONE(1.23052    SEC) : NON-LOCAL POTENTIAL
 DONE(1.23059    SEC) : INIT BASIS
 START CHARGE      : atomic
 DONE(1.56981    SEC) : INIT SCF
 ITER   ETOT(eV)       EDIFF(eV)      DRHO       TIME(s)    
 CG1    -1.851788e+02  0.000000e+00   3.795e-01  4.590e+02  
 CG2    -1.875238e+02  -2.345014e+00  3.176e-02  1.696e+02  
 CG3    -1.875774e+02  -5.357059e-02  3.214e-04  2.686e+02  
 CG4    -1.875801e+02  -2.698126e-03  3.188e-04  5.536e+02  
 CG5    -1.875812e+02  -1.159529e-03  6.054e-05  3.434e+02  
 CG6    -1.875814e+02  -1.371088e-04  3.396e-07  3.229e+02  
 CG7    -1.875814e+02  -3.212767e-06  3.104e-08  3.744e+02  
 CG8    -1.875814e+02  -6.269205e-08  6.576e-10  1.768e+02  

  |CLASS_NAME---------|NAME---------------|TIME(Sec)-----|CALLS----|AVG------|PER%-------
                       total               2669.9         17        1.6e+02   1e+02     %
   Driver              driver_line         2669.9         1         2.7e+03   1e+02     %
   PW_Basis            setuptransform      0.41042        1         0.41      0.015     %
   PW_Basis            setup_struc_factor  0.51324        1         0.51      0.019     %
   ESolver_KS_PW       Run                 2668.6         1         2.7e+03   1e+02     %
   PW_Basis            recip2real          0.93228        56        0.017     0.035     %
   PW_Basis            gathers_scatterp    0.1622         56        0.0029    0.0061    %
   Potential           init_pot            0.23819        1         0.24      0.0089    %
   Potential           update_from_charge  4.1074         9         0.46      0.15      %
   Potential           cal_v_eff           4.0977         9         0.46      0.15      %
   H_Hartree_pw        v_hartree           0.39422        9         0.044     0.015     %
   PW_Basis            real2recip          1.4251         88        0.016     0.053     %
   PW_Basis            gatherp_scatters    0.16375        88        0.0019    0.0061    %
   PotXC               cal_v_eff           3.6724         9         0.41      0.14      %
   XC_Functional       v_xc                1445.3         5         2.9e+02   54        %
   XC_Functional       v_xc_libxc          3.6459         9         0.41      0.14      %
   Symmetry            rho_symmetry        0.26042        9         0.029     0.0098    %
   HSolverPW           solve               2663.1         8         3.3e+02   1e+02     %
   WF_atomic           atomic_wfc          0.3748         84        0.0045    0.014     %
   WF_igk              get_sk              0.32188        1344      0.00024   0.012     %
   DiagoIterAssist     diagH_subspace      463.16         672       0.69      17        %
   OperatorPW          hPsi                2193.7         77043     0.028     82        %
   Operator            EkineticPW          11.936         77043     0.00015   0.45      %
   Operator            VeffPW              2177.4         77043     0.028     82        %
   PW_Basis_K          recip2real          1106.4         102721    0.011     41        %
   PW_Basis_K          gathers_scatterp    186.3          102721    0.0018    7         %
   PW_Basis_K          real2recip          924.34         95187     0.0097    35        %
   PW_Basis_K          gatherp_scatters    52.568         95187     0.00055   2         %
   Operator            NonlocalPW          0.24326        77043     3.2e-06   0.0091    %
   DiagoIterAssist     LAPACK_subspace     0.47211        672       0.0007    0.018     %
   DiagoCG             diag_once           2087.5         672       3.1       78        %
   ElecStatePW         psiToRho            108.16         8         14        4.1       %
   Charge              mix_rho             0.59574        7         0.085     0.022     %
 ----------------------------------------------------------------------------------------

 START  Time  : Mon Mar  6 13:58:28 2023
 FINISH Time  : Mon Mar  6 14:42:58 2023
 TOTAL  Time  : 2.7e+03
 SEE INFORMATION IN : OUT.blpstest/
