 *********************************************************
 *                                                       *
 *                  WELCOME TO ABACUS v3.0               *
 *                                                       *
 *            'Atomic-orbital Based Ab-initio            *
 *                  Computation at UStc'                 *
 *                                                       *
 *          Website: http://abacus.ustc.edu.cn/          *
 *                                                       *
 *********************************************************
 Wed Apr 26 00:06:32 2023
 MAKE THE DIR         : OUT.oftest/
Notice: symbol 'al_locpsp' is not an element symbol!!!! set the covalent radius to be 0.
 UNIFORM GRID DIM     : 25 * 25 * 25
 UNIFORM GRID DIM(BIG): 25 * 25 * 25
func,idXC_GGA_X_PBE 101
func,idXC_GGA_C_PBE 130
 DONE(0.0777214  SEC) : SETUP UNITCELL
 DONE(0.134137   SEC) : SYMMETRY
 DONE(0.134359   SEC) : INIT K-POINTS
 ---------------------------------------------------------
 Self-consistent calculations for electrons
 ---------------------------------------------------------
 SPIN    KPOINTS         PROCESSORS  
 1       1               1           
 ---------------------------------------------------------
 Use plane wave basis
 ---------------------------------------------------------
 ELEMENT NATOM       XC          
 Al      1           
 ---------------------------------------------------------
 Initial plane wave basis and FFT box
 ---------------------------------------------------------
 DONE(0.135359   SEC) : INIT BASIS
 DONE(0.13538    SEC) : INIT PHI
 DONE(0.168507   SEC) : LOCAL POTENTIAL
 DONE(0.168547   SEC) : NON-LOCAL POTENTIAL
 START CHARGE      : atomic
 DONE(0.226108   SEC) : INIT POTENTIAL
 DONE(0.226153   SEC) : INIT OPTIMIZATION
Default type: double
nnode = 10
nlayer = 3
feg_net_F = 0.540933
 DONE(0.267178   SEC) : INIT KEDF
======================== Running OFDFT ========================
Iter        Etot(Ha)          Theta      PotNorm     deltaE(Ha)
0     -1.977213827510e+00   2.000e-01   2.739e-01   -1.977e+00  
1     -1.980095166821e+00   1.999e-02   3.067e-01   -2.881e-03  
2     -2.079293368320e+00   8.834e-02   2.288e-01   -9.920e-02  
3     -2.090166914024e+00   4.208e-02   3.672e-02   -1.087e-02  
4     -2.090304363925e+00   2.616e-03   1.326e-02   -1.374e-04  
5     -2.090328030121e+00   1.738e-03   1.603e-03   -2.367e-05  
6     -2.090328685649e+00   3.143e-04   1.590e-04   -6.555e-07  
7     -2.090328687667e+00   1.039e-05   1.617e-05   -2.017e-09  

  |CLASS_NAME---------|NAME---------------|TIME(Sec)-----|CALLS----|AVG------|PER%-------
                       total               131.05         21        6.2       1e+02     %
   Driver              driver_line         131.04         1         1.3e+02   1e+02     %
   PW_Basis            recip2real          2.3908         3808      0.00063   1.8       %
   PW_Basis            gathers_scatterp    0.19646        3808      5.2e-05   0.15      %
   Potential           update_from_charge  3.7224         191       0.019     2.8       %
   Potential           cal_v_eff           3.721          191       0.019     2.8       %
   H_Hartree_pw        v_hartree           0.28836        191       0.0015    0.22      %
   PW_Basis            real2recip          2.4257         3808      0.00064   1.9       %
   PW_Basis            gatherp_scatters    0.11642        3808      3.1e-05   0.089     %
   PotXC               cal_v_eff           3.4207         191       0.018     2.6       %
   XC_Functional       v_xc                64.733         96        0.67      49        %
   XC_Functional       v_xc_libxc          3.4141         191       0.018     2.6       %
   ESolver_OF          Run                 130.78         1         1.3e+02   1e+02     %
   KEDF_vW             vw_potential        0.27898        190       0.0015    0.21      %
 ----------------------------------------------------------------------------------------

 START  Time  : Wed Apr 26 00:06:32 2023
 FINISH Time  : Wed Apr 26 00:08:43 2023
 TOTAL  Time  : 1.3e+02
 SEE INFORMATION IN : OUT.oftest/
