                                                                                     
                             WELCOME TO ABACUS                                       
                                                                                     
               'Atomic-orbital Based Ab-initio Computation at UStc'                  
                                                                                     
                     Website: http://abacus.ustc.edu.cn/                             
                                                                                     
    Version: Parallel, in development
    Processor Number is 1
    Start Time is Fri Jul 30 19:55:43 2021
                                                                                     
 ------------------------------------------------------------------------------------

 READING GENERAL INFORMATION
                           global_out_dir = OUT.blpstest/
                           global_in_card = INPUT
                               pseudo_dir = ./
                              pseudo_type = blps
                                    DRANK = 1
                                    DSIZE = 1
                                   DCOLOR = 1
                                    GRANK = 1
                                    GSIZE = 1




 >>>>>>>>>>>>>>>>>>>>>>>>>>>>>>>>>>>>>>>>>>>>>>>>>>>>>>>>>>>>>>>>>>>>>>
 |                                                                    |
 | Reading atom information in unitcell:                              |
 | From the input file and the structure file we know the number of   |
 | different elments in this unitcell, then we list the detail        |
 | information for each element, especially the zeta and polar atomic |
 | orbital number for each element. The total atom number is counted. |
 | We calculate the nearest atom distance for each atom and show the  |
 | Cartesian and Direct coordinates for each atom. We list the file   |
 | address for atomic orbitals. The volume and the lattice vectors    |
 | in real and reciprocal space is also shown.                        |
 |                                                                    |
 <<<<<<<<<<<<<<<<<<<<<<<<<<<<<<<<<<<<<<<<<<<<<<<<<<<<<<<<<<<<<<<<<<<<<<




 READING UNITCELL INFORMATION
                                    ntype = 1
                 atom label for species 1 = Al
                  lattice constant (Bohr) = 4.99858
              lattice constant (Angstrom) = 2.64514

 READING ATOM TYPE 1
                               atom label = Al
                      start magnetization = FALSE
                      L=0, number of zeta = 1
                      L=1, number of zeta = 1
                      L=2, number of zeta = 1
             number of atom for this type = 2

                        TOTAL ATOM NUMBER = 2

 DIRECT COORDINATES
         atom                   x                   y                   z                 mag
     taud_Al1                   0                   0                   0                   0
     taud_Al2            0.666667            0.333333                 0.5                   0


                          Volume (Bohr^3) = 177.484
                             Volume (A^3) = 26.3004

 Lattice vectors: (Cartesian coordinate: in unit of a_0)
                   +1                  +0                  +0
                 -0.5           +0.866025                  +0
                   +0                  +0            +1.64092
 Reciprocal vectors: (Cartesian coordinate: in unit of 2 pi/a_0)
                   +1            +0.57735                  -0
                   -0             +1.1547                  -0
                   +0                  -0           +0.609413




 >>>>>>>>>>>>>>>>>>>>>>>>>>>>>>>>>>>>>>>>>>>>>>>>>>>>>>>>>>>>>>>>>>>>>>
 |                                                                    |
 | Reading pseudopotentials files:                                    |
 | The pseudopotential file is in UPF format. The 'NC' indicates that |
 | the type of pseudopotential is 'norm conserving'. Functional of    |
 | exchange and correlation is decided by 4 given parameters in UPF   |
 | file.  We also read in the 'core correction' if there exists.      |
 | Also we can read the valence electrons number and the maximal      |
 | angular momentum used in this pseudopotential. We also read in the |
 | trail wave function, trail atomic density and local-pseudopotential|
 | on logrithmic grid. The non-local pseudopotential projector is also|
 | read in if there is any.                                           |
 |                                                                    |
 <<<<<<<<<<<<<<<<<<<<<<<<<<<<<<<<<<<<<<<<<<<<<<<<<<<<<<<<<<<<<<<<<<<<<<




                PAO radial cut off (Bohr) = 16

 Read in pseudopotential file is al.lda.lps
                     pseudopotential type = 
                            functional Ex = LDA
                            functional Ec = LDA
                          functional GCEx = NOGX
                          functional GCEc = NOGC
                 nonlocal core correction = 0
                        valence electrons = 3
                                     lmax = 0
                           number of zeta = 0
                     number of projectors = 0
     initial pseudo atomic orbital number = 0
                                   NLOCAL = 18

 SETUP THE ELECTRONS NUMBER
            electron number of element Al = 3
      total electron number of element Al = 6
                           occupied bands = 3
                                   NBANDS = 15
 DONE : SETUP UNITCELL Time : 0.024245 (SEC)





 >>>>>>>>>>>>>>>>>>>>>>>>>>>>>>>>>>>>>>>>>>>>>>>>>>>>>>>>>>>>>>>>>>>>>>
 |                                                                    |
 | Doing symmetry analysis:                                           |
 | We calculate the norm of 3 vectors and the angles between them,    |
 | the type of Bravais lattice is given. We can judge if the unticell |
 | is a primitive cell. Finally we give the point group operation for |
 | this unitcell. We we use the point group operations to do symmetry |
 | analysis on given k-point mesh and the charge density.             |
 |                                                                    |
 <<<<<<<<<<<<<<<<<<<<<<<<<<<<<<<<<<<<<<<<<<<<<<<<<<<<<<<<<<<<<<<<<<<<<<




 LATTICE VECTORS: (CARTESIAN COORDINATE: IN UNIT OF A0)
                   +1                  +0                  +0
                 -0.5           +0.866025                  +0
                   +0                  +0            +1.64092
                       right hand lattice = 1
                                   NORM_A = 1
                                   NORM_B = 1
                                   NORM_C = 1.64092
                           ALPHA (DEGREE) = 120
                           BETA  (DEGREE) = 90
                           GAMMA (DEGREE) = 90
                             BRAVAIS TYPE = 4
                     BRAVAIS LATTICE NAME = 04. Hexagonal cell
 STANDARD LATTICE VECTORS: (CARTESIAN COORDINATE: IN UNIT OF A0)
                   +1                  +0                  +0
                 -0.5           +0.866025                  +0
                   +0                  +0            +1.64092
                                    IBRAV = 4
                                  BRAVAIS = HEXAGONAL CELL
                       LATTICE CONSTANT A = 5.58871
                                C/A RATIO = 0.663993
                                    ibrav = 4
                        ROTATION MATRICES = 24
              PURE POINT GROUP OPERATIONS = 12
                   SPACE GROUP OPERATIONS = 12
                                       C2 = 3
                                       C3 = 2
                                       C4 = 0
                                       C6 = 0
                                       S1 = 4
                                       S3 = 2
                                       S4 = 0
                                       S6 = 0
                              POINT GROUP = D_3h
 DONE : SYMMETRY Time : 0.076607 (SEC)





 >>>>>>>>>>>>>>>>>>>>>>>>>>>>>>>>>>>>>>>>>>>>>>>>>>>>>>>>>>>>>>>>>>>>>>
 |                                                                    |
 | Setup K-points                                                     |
 | We setup the k-points according to input parameters.               |
 | The reduced k-points are set according to symmetry operations.     |
 | We treat the spin as another set of k-points.                      |
 |                                                                    |
 <<<<<<<<<<<<<<<<<<<<<<<<<<<<<<<<<<<<<<<<<<<<<<<<<<<<<<<<<<<<<<<<<<<<<<





 SETUP K-POINTS
                                    nspin = 1
                   Input type of k points = Monkhorst-Pack(Gamma)
                                   nkstot = 1728
                               nkstot_ibz = 133
      IBZ             DirectX             DirectY             DirectZ              Weight    ibz2bz
        1                   0                   0                   0         0.000578704         0
        2            0.916667           0.0833333                   0          0.00347222         1
        3            0.833333            0.166667                   0          0.00347222         2
        4                0.75                0.25                   0          0.00347222         3
        5            0.666667            0.333333                   0          0.00347222         4
        6            0.583333            0.416667                   0          0.00347222         5
        7                 0.5                 0.5                   0          0.00173611         6
        8            0.916667            0.916667                   0          0.00347222        13
        9            0.916667            0.833333                   0          0.00694444        14
       10            0.916667                0.75                   0          0.00694444        15
       11            0.916667            0.666667                   0          0.00694444        16
       12            0.916667            0.583333                   0          0.00694444        17
       13            0.833333            0.833333                   0          0.00347222        26
       14            0.833333                0.75                   0          0.00694444        27
       15            0.833333            0.666667                   0          0.00694444        28
       16            0.833333            0.583333                   0          0.00347222        29
       17                0.75                0.75                   0          0.00347222        39
       18                0.75            0.666667                   0          0.00694444        40
       19            0.666667            0.666667                   0          0.00115741        52
       20                   0                   0            0.916667          0.00115741       144
       21            0.916667           0.0833333            0.916667          0.00694444       145
       22            0.833333            0.166667            0.916667          0.00694444       146
       23                0.75                0.25            0.916667          0.00694444       147
       24            0.666667            0.333333            0.916667          0.00694444       148
       25            0.583333            0.416667            0.916667          0.00694444       149
       26                 0.5                 0.5            0.916667          0.00347222       150
       27            0.916667            0.916667            0.916667          0.00694444       157
       28            0.916667            0.833333            0.916667           0.0138889       158
       29            0.916667                0.75            0.916667           0.0138889       159
       30            0.916667            0.666667            0.916667           0.0138889       160
       31            0.916667            0.583333            0.916667           0.0138889       161
       32            0.833333            0.833333            0.916667          0.00694444       170
       33            0.833333                0.75            0.916667           0.0138889       171
       34            0.833333            0.666667            0.916667           0.0138889       172
       35            0.833333            0.583333            0.916667          0.00694444       173
       36                0.75                0.75            0.916667          0.00694444       183
       37                0.75            0.666667            0.916667           0.0138889       184
       38            0.666667            0.666667            0.916667          0.00231481       196
       39                   0                   0            0.833333          0.00115741       288
       40            0.916667           0.0833333            0.833333          0.00694444       289
       41            0.833333            0.166667            0.833333          0.00694444       290
       42                0.75                0.25            0.833333          0.00694444       291
       43            0.666667            0.333333            0.833333          0.00694444       292
       44            0.583333            0.416667            0.833333          0.00694444       293
       45                 0.5                 0.5            0.833333          0.00347222       294
       46            0.916667            0.916667            0.833333          0.00694444       301
       47            0.916667            0.833333            0.833333           0.0138889       302
       48            0.916667                0.75            0.833333           0.0138889       303
       49            0.916667            0.666667            0.833333           0.0138889       304
       50            0.916667            0.583333            0.833333           0.0138889       305
       51            0.833333            0.833333            0.833333          0.00694444       314
       52            0.833333                0.75            0.833333           0.0138889       315
       53            0.833333            0.666667            0.833333           0.0138889       316
       54            0.833333            0.583333            0.833333          0.00694444       317
       55                0.75                0.75            0.833333          0.00694444       327
       56                0.75            0.666667            0.833333           0.0138889       328
       57            0.666667            0.666667            0.833333          0.00231481       340
       58                   0                   0                0.75          0.00115741       432
       59            0.916667           0.0833333                0.75          0.00694444       433
       60            0.833333            0.166667                0.75          0.00694444       434
       61                0.75                0.25                0.75          0.00694444       435
       62            0.666667            0.333333                0.75          0.00694444       436
       63            0.583333            0.416667                0.75          0.00694444       437
       64                 0.5                 0.5                0.75          0.00347222       438
       65            0.916667            0.916667                0.75          0.00694444       445
       66            0.916667            0.833333                0.75           0.0138889       446
       67            0.916667                0.75                0.75           0.0138889       447
       68            0.916667            0.666667                0.75           0.0138889       448
       69            0.916667            0.583333                0.75           0.0138889       449
       70            0.833333            0.833333                0.75          0.00694444       458
       71            0.833333                0.75                0.75           0.0138889       459
       72            0.833333            0.666667                0.75           0.0138889       460
       73            0.833333            0.583333                0.75          0.00694444       461
       74                0.75                0.75                0.75          0.00694444       471
       75                0.75            0.666667                0.75           0.0138889       472
       76            0.666667            0.666667                0.75          0.00231481       484
       77                   0                   0            0.666667          0.00115741       576
       78            0.916667           0.0833333            0.666667          0.00694444       577
       79            0.833333            0.166667            0.666667          0.00694444       578
       80                0.75                0.25            0.666667          0.00694444       579
       81            0.666667            0.333333            0.666667          0.00694444       580
       82            0.583333            0.416667            0.666667          0.00694444       581
       83                 0.5                 0.5            0.666667          0.00347222       582
       84            0.916667            0.916667            0.666667          0.00694444       589
       85            0.916667            0.833333            0.666667           0.0138889       590
       86            0.916667                0.75            0.666667           0.0138889       591
       87            0.916667            0.666667            0.666667           0.0138889       592
       88            0.916667            0.583333            0.666667           0.0138889       593
       89            0.833333            0.833333            0.666667          0.00694444       602
       90            0.833333                0.75            0.666667           0.0138889       603
       91            0.833333            0.666667            0.666667           0.0138889       604
       92            0.833333            0.583333            0.666667          0.00694444       605
       93                0.75                0.75            0.666667          0.00694444       615
       94                0.75            0.666667            0.666667           0.0138889       616
       95            0.666667            0.666667            0.666667          0.00231481       628
       96                   0                   0            0.583333          0.00115741       720
       97            0.916667           0.0833333            0.583333          0.00694444       721
       98            0.833333            0.166667            0.583333          0.00694444       722
       99                0.75                0.25            0.583333          0.00694444       723
      100            0.666667            0.333333            0.583333          0.00694444       724
      101            0.583333            0.416667            0.583333          0.00694444       725
      102                 0.5                 0.5            0.583333          0.00347222       726
      103            0.916667            0.916667            0.583333          0.00694444       733
      104            0.916667            0.833333            0.583333           0.0138889       734
      105            0.916667                0.75            0.583333           0.0138889       735
      106            0.916667            0.666667            0.583333           0.0138889       736
      107            0.916667            0.583333            0.583333           0.0138889       737
      108            0.833333            0.833333            0.583333          0.00694444       746
      109            0.833333                0.75            0.583333           0.0138889       747
      110            0.833333            0.666667            0.583333           0.0138889       748
      111            0.833333            0.583333            0.583333          0.00694444       749
      112                0.75                0.75            0.583333          0.00694444       759
      113                0.75            0.666667            0.583333           0.0138889       760
      114            0.666667            0.666667            0.583333          0.00231481       772
      115                   0                   0                 0.5         0.000578704       864
      116            0.916667           0.0833333                 0.5          0.00347222       865
      117            0.833333            0.166667                 0.5          0.00347222       866
      118                0.75                0.25                 0.5          0.00347222       867
      119            0.666667            0.333333                 0.5          0.00347222       868
      120            0.583333            0.416667                 0.5          0.00347222       869
      121                 0.5                 0.5                 0.5          0.00173611       870
      122            0.916667            0.916667                 0.5          0.00347222       877
      123            0.916667            0.833333                 0.5          0.00694444       878
      124            0.916667                0.75                 0.5          0.00694444       879
      125            0.916667            0.666667                 0.5          0.00694444       880
      126            0.916667            0.583333                 0.5          0.00694444       881
      127            0.833333            0.833333                 0.5          0.00347222       890
      128            0.833333                0.75                 0.5          0.00694444       891
      129            0.833333            0.666667                 0.5          0.00694444       892
      130            0.833333            0.583333                 0.5          0.00347222       893
      131                0.75                0.75                 0.5          0.00347222       903
      132                0.75            0.666667                 0.5          0.00694444       904
      133            0.666667            0.666667                 0.5          0.00115741       916
                               nkstot now = 133

  KPOINTS            DIRECT_X            DIRECT_Y            DIRECT_Z              WEIGHT
        1                   0                   0                   0         0.000578704
        2            0.916667           0.0833333                   0          0.00347222
        3            0.833333            0.166667                   0          0.00347222
        4                0.75                0.25                   0          0.00347222
        5            0.666667            0.333333                   0          0.00347222
        6            0.583333            0.416667                   0          0.00347222
        7                 0.5                 0.5                   0          0.00173611
        8            0.916667            0.916667                   0          0.00347222
        9            0.916667            0.833333                   0          0.00694444
       10            0.916667                0.75                   0          0.00694444
       11            0.916667            0.666667                   0          0.00694444
       12            0.916667            0.583333                   0          0.00694444
       13            0.833333            0.833333                   0          0.00347222
       14            0.833333                0.75                   0          0.00694444
       15            0.833333            0.666667                   0          0.00694444
       16            0.833333            0.583333                   0          0.00347222
       17                0.75                0.75                   0          0.00347222
       18                0.75            0.666667                   0          0.00694444
       19            0.666667            0.666667                   0          0.00115741
       20                   0                   0            0.916667          0.00115741
       21            0.916667           0.0833333            0.916667          0.00694444
       22            0.833333            0.166667            0.916667          0.00694444
       23                0.75                0.25            0.916667          0.00694444
       24            0.666667            0.333333            0.916667          0.00694444
       25            0.583333            0.416667            0.916667          0.00694444
       26                 0.5                 0.5            0.916667          0.00347222
       27            0.916667            0.916667            0.916667          0.00694444
       28            0.916667            0.833333            0.916667           0.0138889
       29            0.916667                0.75            0.916667           0.0138889
       30            0.916667            0.666667            0.916667           0.0138889
       31            0.916667            0.583333            0.916667           0.0138889
       32            0.833333            0.833333            0.916667          0.00694444
       33            0.833333                0.75            0.916667           0.0138889
       34            0.833333            0.666667            0.916667           0.0138889
       35            0.833333            0.583333            0.916667          0.00694444
       36                0.75                0.75            0.916667          0.00694444
       37                0.75            0.666667            0.916667           0.0138889
       38            0.666667            0.666667            0.916667          0.00231481
       39                   0                   0            0.833333          0.00115741
       40            0.916667           0.0833333            0.833333          0.00694444
       41            0.833333            0.166667            0.833333          0.00694444
       42                0.75                0.25            0.833333          0.00694444
       43            0.666667            0.333333            0.833333          0.00694444
       44            0.583333            0.416667            0.833333          0.00694444
       45                 0.5                 0.5            0.833333          0.00347222
       46            0.916667            0.916667            0.833333          0.00694444
       47            0.916667            0.833333            0.833333           0.0138889
       48            0.916667                0.75            0.833333           0.0138889
       49            0.916667            0.666667            0.833333           0.0138889
       50            0.916667            0.583333            0.833333           0.0138889
       51            0.833333            0.833333            0.833333          0.00694444
       52            0.833333                0.75            0.833333           0.0138889
       53            0.833333            0.666667            0.833333           0.0138889
       54            0.833333            0.583333            0.833333          0.00694444
       55                0.75                0.75            0.833333          0.00694444
       56                0.75            0.666667            0.833333           0.0138889
       57            0.666667            0.666667            0.833333          0.00231481
       58                   0                   0                0.75          0.00115741
       59            0.916667           0.0833333                0.75          0.00694444
       60            0.833333            0.166667                0.75          0.00694444
       61                0.75                0.25                0.75          0.00694444
       62            0.666667            0.333333                0.75          0.00694444
       63            0.583333            0.416667                0.75          0.00694444
       64                 0.5                 0.5                0.75          0.00347222
       65            0.916667            0.916667                0.75          0.00694444
       66            0.916667            0.833333                0.75           0.0138889
       67            0.916667                0.75                0.75           0.0138889
       68            0.916667            0.666667                0.75           0.0138889
       69            0.916667            0.583333                0.75           0.0138889
       70            0.833333            0.833333                0.75          0.00694444
       71            0.833333                0.75                0.75           0.0138889
       72            0.833333            0.666667                0.75           0.0138889
       73            0.833333            0.583333                0.75          0.00694444
       74                0.75                0.75                0.75          0.00694444
       75                0.75            0.666667                0.75           0.0138889
       76            0.666667            0.666667                0.75          0.00231481
       77                   0                   0            0.666667          0.00115741
       78            0.916667           0.0833333            0.666667          0.00694444
       79            0.833333            0.166667            0.666667          0.00694444
       80                0.75                0.25            0.666667          0.00694444
       81            0.666667            0.333333            0.666667          0.00694444
       82            0.583333            0.416667            0.666667          0.00694444
       83                 0.5                 0.5            0.666667          0.00347222
       84            0.916667            0.916667            0.666667          0.00694444
       85            0.916667            0.833333            0.666667           0.0138889
       86            0.916667                0.75            0.666667           0.0138889
       87            0.916667            0.666667            0.666667           0.0138889
       88            0.916667            0.583333            0.666667           0.0138889
       89            0.833333            0.833333            0.666667          0.00694444
       90            0.833333                0.75            0.666667           0.0138889
       91            0.833333            0.666667            0.666667           0.0138889
       92            0.833333            0.583333            0.666667          0.00694444
       93                0.75                0.75            0.666667          0.00694444
       94                0.75            0.666667            0.666667           0.0138889
       95            0.666667            0.666667            0.666667          0.00231481
       96                   0                   0            0.583333          0.00115741
       97            0.916667           0.0833333            0.583333          0.00694444
       98            0.833333            0.166667            0.583333          0.00694444
       99                0.75                0.25            0.583333          0.00694444
      100            0.666667            0.333333            0.583333          0.00694444
      101            0.583333            0.416667            0.583333          0.00694444
      102                 0.5                 0.5            0.583333          0.00347222
      103            0.916667            0.916667            0.583333          0.00694444
      104            0.916667            0.833333            0.583333           0.0138889
      105            0.916667                0.75            0.583333           0.0138889
      106            0.916667            0.666667            0.583333           0.0138889
      107            0.916667            0.583333            0.583333           0.0138889
      108            0.833333            0.833333            0.583333          0.00694444
      109            0.833333                0.75            0.583333           0.0138889
      110            0.833333            0.666667            0.583333           0.0138889
      111            0.833333            0.583333            0.583333          0.00694444
      112                0.75                0.75            0.583333          0.00694444
      113                0.75            0.666667            0.583333           0.0138889
      114            0.666667            0.666667            0.583333          0.00231481
      115                   0                   0                 0.5         0.000578704
      116            0.916667           0.0833333                 0.5          0.00347222
      117            0.833333            0.166667                 0.5          0.00347222
      118                0.75                0.25                 0.5          0.00347222
      119            0.666667            0.333333                 0.5          0.00347222
      120            0.583333            0.416667                 0.5          0.00347222
      121                 0.5                 0.5                 0.5          0.00173611
      122            0.916667            0.916667                 0.5          0.00347222
      123            0.916667            0.833333                 0.5          0.00694444
      124            0.916667                0.75                 0.5          0.00694444
      125            0.916667            0.666667                 0.5          0.00694444
      126            0.916667            0.583333                 0.5          0.00694444
      127            0.833333            0.833333                 0.5          0.00347222
      128            0.833333                0.75                 0.5          0.00694444
      129            0.833333            0.666667                 0.5          0.00694444
      130            0.833333            0.583333                 0.5          0.00347222
      131                0.75                0.75                 0.5          0.00347222
      132                0.75            0.666667                 0.5          0.00694444
      133            0.666667            0.666667                 0.5          0.00115741

           k-point number in this process = 133
       minimum distributed K point number = 133

  KPOINTS         CARTESIAN_X         CARTESIAN_Y         CARTESIAN_Z              WEIGHT
        1                   0                   0                   0          0.00115741
        2            0.916667            0.625463                   0          0.00694444
        3            0.833333            0.673575                   0          0.00694444
        4                0.75            0.721688                   0          0.00694444
        5            0.666667              0.7698                   0          0.00694444
        6            0.583333            0.817913                   0          0.00694444
        7                 0.5            0.866025                   0          0.00347222
        8            0.916667             1.58771                   0          0.00694444
        9            0.916667             1.49149                   0           0.0138889
       10            0.916667             1.39526                   0           0.0138889
       11            0.916667             1.29904                   0           0.0138889
       12            0.916667             1.20281                   0           0.0138889
       13            0.833333             1.44338                   0          0.00694444
       14            0.833333             1.34715                   0           0.0138889
       15            0.833333             1.25093                   0           0.0138889
       16            0.833333              1.1547                   0          0.00694444
       17                0.75             1.29904                   0          0.00694444
       18                0.75             1.20281                   0           0.0138889
       19            0.666667              1.1547                   0          0.00231481
       20                   0                   0            0.558629          0.00231481
       21            0.916667            0.625463            0.558629           0.0138889
       22            0.833333            0.673575            0.558629           0.0138889
       23                0.75            0.721688            0.558629           0.0138889
       24            0.666667              0.7698            0.558629           0.0138889
       25            0.583333            0.817913            0.558629           0.0138889
       26                 0.5            0.866025            0.558629          0.00694444
       27            0.916667             1.58771            0.558629           0.0138889
       28            0.916667             1.49149            0.558629           0.0277778
       29            0.916667             1.39526            0.558629           0.0277778
       30            0.916667             1.29904            0.558629           0.0277778
       31            0.916667             1.20281            0.558629           0.0277778
       32            0.833333             1.44338            0.558629           0.0138889
       33            0.833333             1.34715            0.558629           0.0277778
       34            0.833333             1.25093            0.558629           0.0277778
       35            0.833333              1.1547            0.558629           0.0138889
       36                0.75             1.29904            0.558629           0.0138889
       37                0.75             1.20281            0.558629           0.0277778
       38            0.666667              1.1547            0.558629          0.00462963
       39                   0                   0            0.507844          0.00231481
       40            0.916667            0.625463            0.507844           0.0138889
       41            0.833333            0.673575            0.507844           0.0138889
       42                0.75            0.721688            0.507844           0.0138889
       43            0.666667              0.7698            0.507844           0.0138889
       44            0.583333            0.817913            0.507844           0.0138889
       45                 0.5            0.866025            0.507844          0.00694444
       46            0.916667             1.58771            0.507844           0.0138889
       47            0.916667             1.49149            0.507844           0.0277778
       48            0.916667             1.39526            0.507844           0.0277778
       49            0.916667             1.29904            0.507844           0.0277778
       50            0.916667             1.20281            0.507844           0.0277778
       51            0.833333             1.44338            0.507844           0.0138889
       52            0.833333             1.34715            0.507844           0.0277778
       53            0.833333             1.25093            0.507844           0.0277778
       54            0.833333              1.1547            0.507844           0.0138889
       55                0.75             1.29904            0.507844           0.0138889
       56                0.75             1.20281            0.507844           0.0277778
       57            0.666667              1.1547            0.507844          0.00462963
       58                   0                   0             0.45706          0.00231481
       59            0.916667            0.625463             0.45706           0.0138889
       60            0.833333            0.673575             0.45706           0.0138889
       61                0.75            0.721688             0.45706           0.0138889
       62            0.666667              0.7698             0.45706           0.0138889
       63            0.583333            0.817913             0.45706           0.0138889
       64                 0.5            0.866025             0.45706          0.00694444
       65            0.916667             1.58771             0.45706           0.0138889
       66            0.916667             1.49149             0.45706           0.0277778
       67            0.916667             1.39526             0.45706           0.0277778
       68            0.916667             1.29904             0.45706           0.0277778
       69            0.916667             1.20281             0.45706           0.0277778
       70            0.833333             1.44338             0.45706           0.0138889
       71            0.833333             1.34715             0.45706           0.0277778
       72            0.833333             1.25093             0.45706           0.0277778
       73            0.833333              1.1547             0.45706           0.0138889
       74                0.75             1.29904             0.45706           0.0138889
       75                0.75             1.20281             0.45706           0.0277778
       76            0.666667              1.1547             0.45706          0.00462963
       77                   0                   0            0.406275          0.00231481
       78            0.916667            0.625463            0.406275           0.0138889
       79            0.833333            0.673575            0.406275           0.0138889
       80                0.75            0.721688            0.406275           0.0138889
       81            0.666667              0.7698            0.406275           0.0138889
       82            0.583333            0.817913            0.406275           0.0138889
       83                 0.5            0.866025            0.406275          0.00694444
       84            0.916667             1.58771            0.406275           0.0138889
       85            0.916667             1.49149            0.406275           0.0277778
       86            0.916667             1.39526            0.406275           0.0277778
       87            0.916667             1.29904            0.406275           0.0277778
       88            0.916667             1.20281            0.406275           0.0277778
       89            0.833333             1.44338            0.406275           0.0138889
       90            0.833333             1.34715            0.406275           0.0277778
       91            0.833333             1.25093            0.406275           0.0277778
       92            0.833333              1.1547            0.406275           0.0138889
       93                0.75             1.29904            0.406275           0.0138889
       94                0.75             1.20281            0.406275           0.0277778
       95            0.666667              1.1547            0.406275          0.00462963
       96                   0                   0            0.355491          0.00231481
       97            0.916667            0.625463            0.355491           0.0138889
       98            0.833333            0.673575            0.355491           0.0138889
       99                0.75            0.721688            0.355491           0.0138889
      100            0.666667              0.7698            0.355491           0.0138889
      101            0.583333            0.817913            0.355491           0.0138889
      102                 0.5            0.866025            0.355491          0.00694444
      103            0.916667             1.58771            0.355491           0.0138889
      104            0.916667             1.49149            0.355491           0.0277778
      105            0.916667             1.39526            0.355491           0.0277778
      106            0.916667             1.29904            0.355491           0.0277778
      107            0.916667             1.20281            0.355491           0.0277778
      108            0.833333             1.44338            0.355491           0.0138889
      109            0.833333             1.34715            0.355491           0.0277778
      110            0.833333             1.25093            0.355491           0.0277778
      111            0.833333              1.1547            0.355491           0.0138889
      112                0.75             1.29904            0.355491           0.0138889
      113                0.75             1.20281            0.355491           0.0277778
      114            0.666667              1.1547            0.355491          0.00462963
      115                   0                   0            0.304706          0.00115741
      116            0.916667            0.625463            0.304706          0.00694444
      117            0.833333            0.673575            0.304706          0.00694444
      118                0.75            0.721688            0.304706          0.00694444
      119            0.666667              0.7698            0.304706          0.00694444
      120            0.583333            0.817913            0.304706          0.00694444
      121                 0.5            0.866025            0.304706          0.00347222
      122            0.916667             1.58771            0.304706          0.00694444
      123            0.916667             1.49149            0.304706           0.0138889
      124            0.916667             1.39526            0.304706           0.0138889
      125            0.916667             1.29904            0.304706           0.0138889
      126            0.916667             1.20281            0.304706           0.0138889
      127            0.833333             1.44338            0.304706          0.00694444
      128            0.833333             1.34715            0.304706           0.0138889
      129            0.833333             1.25093            0.304706           0.0138889
      130            0.833333              1.1547            0.304706          0.00694444
      131                0.75             1.29904            0.304706          0.00694444
      132                0.75             1.20281            0.304706           0.0138889
      133            0.666667              1.1547            0.304706          0.00231481

  KPOINTS            DIRECT_X            DIRECT_Y            DIRECT_Z              WEIGHT
        1                   0                   0                   0          0.00115741
        2            0.916667           0.0833333                   0          0.00694444
        3            0.833333            0.166667                   0          0.00694444
        4                0.75                0.25                   0          0.00694444
        5            0.666667            0.333333                   0          0.00694444
        6            0.583333            0.416667                   0          0.00694444
        7                 0.5                 0.5                   0          0.00347222
        8            0.916667            0.916667                   0          0.00694444
        9            0.916667            0.833333                   0           0.0138889
       10            0.916667                0.75                   0           0.0138889
       11            0.916667            0.666667                   0           0.0138889
       12            0.916667            0.583333                   0           0.0138889
       13            0.833333            0.833333                   0          0.00694444
       14            0.833333                0.75                   0           0.0138889
       15            0.833333            0.666667                   0           0.0138889
       16            0.833333            0.583333                   0          0.00694444
       17                0.75                0.75                   0          0.00694444
       18                0.75            0.666667                   0           0.0138889
       19            0.666667            0.666667                   0          0.00231481
       20                   0                   0            0.916667          0.00231481
       21            0.916667           0.0833333            0.916667           0.0138889
       22            0.833333            0.166667            0.916667           0.0138889
       23                0.75                0.25            0.916667           0.0138889
       24            0.666667            0.333333            0.916667           0.0138889
       25            0.583333            0.416667            0.916667           0.0138889
       26                 0.5                 0.5            0.916667          0.00694444
       27            0.916667            0.916667            0.916667           0.0138889
       28            0.916667            0.833333            0.916667           0.0277778
       29            0.916667                0.75            0.916667           0.0277778
       30            0.916667            0.666667            0.916667           0.0277778
       31            0.916667            0.583333            0.916667           0.0277778
       32            0.833333            0.833333            0.916667           0.0138889
       33            0.833333                0.75            0.916667           0.0277778
       34            0.833333            0.666667            0.916667           0.0277778
       35            0.833333            0.583333            0.916667           0.0138889
       36                0.75                0.75            0.916667           0.0138889
       37                0.75            0.666667            0.916667           0.0277778
       38            0.666667            0.666667            0.916667          0.00462963
       39                   0                   0            0.833333          0.00231481
       40            0.916667           0.0833333            0.833333           0.0138889
       41            0.833333            0.166667            0.833333           0.0138889
       42                0.75                0.25            0.833333           0.0138889
       43            0.666667            0.333333            0.833333           0.0138889
       44            0.583333            0.416667            0.833333           0.0138889
       45                 0.5                 0.5            0.833333          0.00694444
       46            0.916667            0.916667            0.833333           0.0138889
       47            0.916667            0.833333            0.833333           0.0277778
       48            0.916667                0.75            0.833333           0.0277778
       49            0.916667            0.666667            0.833333           0.0277778
       50            0.916667            0.583333            0.833333           0.0277778
       51            0.833333            0.833333            0.833333           0.0138889
       52            0.833333                0.75            0.833333           0.0277778
       53            0.833333            0.666667            0.833333           0.0277778
       54            0.833333            0.583333            0.833333           0.0138889
       55                0.75                0.75            0.833333           0.0138889
       56                0.75            0.666667            0.833333           0.0277778
       57            0.666667            0.666667            0.833333          0.00462963
       58                   0                   0                0.75          0.00231481
       59            0.916667           0.0833333                0.75           0.0138889
       60            0.833333            0.166667                0.75           0.0138889
       61                0.75                0.25                0.75           0.0138889
       62            0.666667            0.333333                0.75           0.0138889
       63            0.583333            0.416667                0.75           0.0138889
       64                 0.5                 0.5                0.75          0.00694444
       65            0.916667            0.916667                0.75           0.0138889
       66            0.916667            0.833333                0.75           0.0277778
       67            0.916667                0.75                0.75           0.0277778
       68            0.916667            0.666667                0.75           0.0277778
       69            0.916667            0.583333                0.75           0.0277778
       70            0.833333            0.833333                0.75           0.0138889
       71            0.833333                0.75                0.75           0.0277778
       72            0.833333            0.666667                0.75           0.0277778
       73            0.833333            0.583333                0.75           0.0138889
       74                0.75                0.75                0.75           0.0138889
       75                0.75            0.666667                0.75           0.0277778
       76            0.666667            0.666667                0.75          0.00462963
       77                   0                   0            0.666667          0.00231481
       78            0.916667           0.0833333            0.666667           0.0138889
       79            0.833333            0.166667            0.666667           0.0138889
       80                0.75                0.25            0.666667           0.0138889
       81            0.666667            0.333333            0.666667           0.0138889
       82            0.583333            0.416667            0.666667           0.0138889
       83                 0.5                 0.5            0.666667          0.00694444
       84            0.916667            0.916667            0.666667           0.0138889
       85            0.916667            0.833333            0.666667           0.0277778
       86            0.916667                0.75            0.666667           0.0277778
       87            0.916667            0.666667            0.666667           0.0277778
       88            0.916667            0.583333            0.666667           0.0277778
       89            0.833333            0.833333            0.666667           0.0138889
       90            0.833333                0.75            0.666667           0.0277778
       91            0.833333            0.666667            0.666667           0.0277778
       92            0.833333            0.583333            0.666667           0.0138889
       93                0.75                0.75            0.666667           0.0138889
       94                0.75            0.666667            0.666667           0.0277778
       95            0.666667            0.666667            0.666667          0.00462963
       96                   0                   0            0.583333          0.00231481
       97            0.916667           0.0833333            0.583333           0.0138889
       98            0.833333            0.166667            0.583333           0.0138889
       99                0.75                0.25            0.583333           0.0138889
      100            0.666667            0.333333            0.583333           0.0138889
      101            0.583333            0.416667            0.583333           0.0138889
      102                 0.5                 0.5            0.583333          0.00694444
      103            0.916667            0.916667            0.583333           0.0138889
      104            0.916667            0.833333            0.583333           0.0277778
      105            0.916667                0.75            0.583333           0.0277778
      106            0.916667            0.666667            0.583333           0.0277778
      107            0.916667            0.583333            0.583333           0.0277778
      108            0.833333            0.833333            0.583333           0.0138889
      109            0.833333                0.75            0.583333           0.0277778
      110            0.833333            0.666667            0.583333           0.0277778
      111            0.833333            0.583333            0.583333           0.0138889
      112                0.75                0.75            0.583333           0.0138889
      113                0.75            0.666667            0.583333           0.0277778
      114            0.666667            0.666667            0.583333          0.00462963
      115                   0                   0                 0.5          0.00115741
      116            0.916667           0.0833333                 0.5          0.00694444
      117            0.833333            0.166667                 0.5          0.00694444
      118                0.75                0.25                 0.5          0.00694444
      119            0.666667            0.333333                 0.5          0.00694444
      120            0.583333            0.416667                 0.5          0.00694444
      121                 0.5                 0.5                 0.5          0.00347222
      122            0.916667            0.916667                 0.5          0.00694444
      123            0.916667            0.833333                 0.5           0.0138889
      124            0.916667                0.75                 0.5           0.0138889
      125            0.916667            0.666667                 0.5           0.0138889
      126            0.916667            0.583333                 0.5           0.0138889
      127            0.833333            0.833333                 0.5          0.00694444
      128            0.833333                0.75                 0.5           0.0138889
      129            0.833333            0.666667                 0.5           0.0138889
      130            0.833333            0.583333                 0.5          0.00694444
      131                0.75                0.75                 0.5          0.00694444
      132                0.75            0.666667                 0.5           0.0138889
      133            0.666667            0.666667                 0.5          0.00231481
 DONE : INIT K-POINTS Time : 0.0901337 (SEC)





 >>>>>>>>>>>>>>>>>>>>>>>>>>>>>>>>>>>>>>>>>>>>>>>>>>>>>>>>>>>>>>>>>>>>>>
 |                                                                    |
 | Setup plane waves:                                                 |
 | Use the energy cutoff and the lattice vectors to generate the      |
 | dimensions of FFT grid. The number of FFT grid on each processor   |
 | is 'nrxx'. The number of plane wave basis in reciprocal space is   |
 | different for charege/potential and wave functions. We also set    |
 | the 'sticks' for the parallel of FFT.                              |
 |                                                                    |
 <<<<<<<<<<<<<<<<<<<<<<<<<<<<<<<<<<<<<<<<<<<<<<<<<<<<<<<<<<<<<<<<<<<<<<





 SETUP THE PLANE WAVE BASIS
     energy cutoff for wavefunc (unit:Ry) = 60
            [fft grid for wave functions] = 27, 27, 45
          [fft grid for charge/potential] = 27, 27, 45
                      [fft grid division] = 1, 1, 1
      [big fft grid for charge/potential] = 27, 27, 45
                                     nbxx = 32805
                                     nrxx = 32805

 SETUP PLANE WAVES FOR CHARGE/POTENTIAL
                    number of plane waves = 11201
                         number of sticks = 421

 SETUP PLANE WAVES FOR WAVE FUNCTIONS
                    number of plane waves = 3087
                         number of sticks = 169

 PARALLEL PW FOR CHARGE/POTENTIAL
     PROC   COLUMNS(POT)             PW
        1            421          11201
 --------------- sum -------------------
        1            421          11201

 PARALLEL PW FOR WAVE FUNCTIONS
     PROC     COLUMNS(W)             PW
        1            169           3087
 --------------- sum -------------------
        1            169           3087

 SETUP COORDINATES OF PLANE WAVES
              number of total plane waves = 11201

 SETUP COORDINATES OF PLANE WAVES
                            number of |g| = 605
                                  max |g| = 151.531
                                  min |g| = 0
 DONE : INIT PLANEWAVE Time : 0.141256 (SEC)

                                     npwx = 1412

 SETUP NONLOCAL PSEUDOPOTENTIALS IN PLANE WAVE BASIS
 Al non-local projectors:
      TOTAL NUMBER OF NONLOCAL PROJECTORS = 0

 nhm = 0, not allocate some matrix. DONE : LOCAL POTENTIAL Time : 0.232688 (SEC)


 Init Non-Local PseudoPotential table : 
 Init Non-Local-Pseudopotential done.
 DONE : NON-LOCAL POTENTIAL Time : 0.232734 (SEC)

                                start_pot = atomic
 DONE : INIT POTENTIAL Time : 0.286981 (SEC)


 Make real space PAO into reciprocal space.
       max mesh points in Pseudopotential = 1601
     dq(describe PAO in reciprocal space) = 0.01
                                    max q = 934

 number of pseudo atomic orbitals for Al is 0
 DONE : INIT BASIS Time : 3.49858 (SEC)

 -------------------------------------------
 -------------------------------------------

 PW ALGORITHM --------------- ION=   1  ELEC=   1--------------------------------
  K-point    CG iter num      Time(Sec)
        1       6.466667       0.153130
        2       7.600000       0.175988
        3       6.333333       0.150365
        4       7.266667       0.170444
        5       7.200000       0.175498
        6       7.266667       0.176568
        7       6.133333       0.152322
        8       6.933333       0.169396
        9       8.266667       0.199288
       10       7.000000       0.172887
       11       7.466667       0.182817
       12       7.266667       0.178212
       13       6.600000       0.165474
       14       7.600000       0.187543
       15       7.266667       0.181015
       16       6.600000       0.166912
       17       6.933333       0.175741
       18       8.200000       0.203396
       19       6.466667       0.165131
       20       7.600000       0.190855
       21       8.666667       0.213148
       22       7.800000       0.194357
       23       7.733333       0.193639
       24       6.933333       0.174697
       25       7.600000       0.185631
       26       6.733333       0.169802
       27       7.600000       0.188920
       28       8.000000       0.198643
       29       7.333333       0.183023
       30       8.466667       0.208092
       31       7.666667       0.191169
       32       8.000000       0.198900
       33       8.600000       0.211971
       34       7.666667       0.192097
       35       7.333333       0.184615
       36       6.800000       0.172891
       37       7.200000       0.180913
       38       6.733333       0.170860
       39       7.666667       0.191306
       40       8.600000       0.212931
       41       7.733333       0.192745
       42       7.733333       0.192876
       43       8.000000       0.198723
       44       7.666667       0.190977
       45       7.333333       0.184018
       46       8.000000       0.198716
       47       7.666667       0.191723
       48       8.200000       0.203584
       49       7.733333       0.192455
       50       8.200000       0.202437
       51       7.600000       0.188709
       52       7.866667       0.195213
       53       7.200000       0.180437
       54       7.333333       0.183471
       55       7.733333       0.192226
       56       8.466667       0.208253
       57       7.266667       0.182492
       58       7.666667       0.191287
       59       7.266667       0.181963
       60       8.333333       0.206285
       61       7.933333       0.197418
       62       7.800000       0.194868
       63       7.200000       0.180727
       64       7.400000       0.185638
       65       7.533333       0.188352
       66       7.266667       0.183048
       67       8.000000       0.199599
       68       7.466667       0.188553
       69       7.866667       0.195227
       70       7.600000       0.189845
       71       7.733333       0.193992
       72       7.666667       0.191635
       73       8.000000       0.199051
       74       7.333333       0.184577
       75       8.200000       0.203152
       76       6.600000       0.168332
       77       6.866667       0.174368
       78       8.866667       0.219362
       79       7.800000       0.195260
       80       7.600000       0.190024
       81       7.600000       0.191096
       82       7.533333       0.188523
       83       7.133333       0.179568
       84       7.533333       0.188825
       85       7.800000       0.194213
       86       8.466667       0.209794
       87       7.866667       0.196069
       88       7.066667       0.178158
       89       7.866667       0.195149
       90       7.266667       0.181878
       91       8.666667       0.213592
       92       7.466667       0.186270
       93       7.466667       0.186801
       94       8.333333       0.205146
       95       7.066667       0.178391
       96       6.600000       0.167650
       97       7.866667       0.196099
       98       8.000000       0.199403
       99       7.600000       0.190574
      100       7.266667       0.182246
      101       7.600000       0.190258
      102       7.066667       0.178786
      103       7.400000       0.184655
      104       8.066667       0.199913
      105       7.866667       0.195333
      106       7.733333       0.192528
      107       7.400000       0.184288
      108       8.000000       0.197149
      109       7.533333       0.187983
      110       7.666667       0.189615
      111       7.733333       0.191683
      112       6.933333       0.174106
      113       7.866667       0.194693
      114       6.400000       0.162236
      115       5.733333       0.147531
      116       7.866667       0.194753
      117       7.800000       0.193166
      118       6.866667       0.172710
      119       7.333333       0.183454
      120       6.600000       0.167260
      121       6.333333       0.161716
      122       6.400000       0.162746
      123       7.733333       0.194436
      124       7.466667       0.186939
      125       7.333333       0.183794
      126       7.533333       0.186406
      127       6.466667       0.162325
      128       6.733333       0.168753
      129       6.800000       0.169384
      130       6.466667       0.163472
      131       6.066667       0.154078
      132       7.133333       0.177493
      133       5.800000       0.148366

 Density error is 0.198677598309
                          Error Threshold = 0.010000000000

       Energy                       Rydberg                            eV
   E_KohnSham               -8.471113225529             -115.255408270360
     E_Harris               -8.520534616583             -115.927820791780
      E_Fermi               +0.762096231653              +10.368851174807

 PW ALGORITHM --------------- ION=   1  ELEC=   2--------------------------------
  K-point    CG iter num      Time(Sec)
        1       2.866667       0.083732
        2       2.466667       0.074400
        3       2.000000       0.063942
        4       2.000000       0.063710
        5       2.000000       0.063668
        6       2.400000       0.073541
        7       2.000000       0.063839
        8       2.266667       0.069627
        9       2.133333       0.066588
       10       2.000000       0.063296
       11       2.000000       0.062990
       12       2.000000       0.063375
       13       2.133333       0.066893
       14       2.066667       0.064737
       15       2.000000       0.063485
       16       2.000000       0.063256
       17       2.266667       0.069603
       18       2.066667       0.065140
       19       2.000000       0.063419
       20       2.200000       0.067874
       21       2.066667       0.064895
       22       2.000000       0.063591
       23       2.000000       0.063236
       24       2.400000       0.073247
       25       2.000000       0.064334
       26       2.000000       0.063372
       27       2.333333       0.071671
       28       2.133333       0.066397
       29       2.000000       0.064053
       30       2.000000       0.063437
       31       2.000000       0.063418
       32       2.000000       0.063931
       33       2.066667       0.065192
       34       2.000000       0.064119
       35       2.000000       0.063682
       36       2.266667       0.069810
       37       2.666667       0.079410
       38       2.000000       0.063346
       39       2.400000       0.073231
       40       2.133333       0.066487
       41       2.000000       0.063607
       42       2.066667       0.065331
       43       2.000000       0.063113
       44       2.000000       0.064100
       45       2.000000       0.063491
       46       2.333333       0.070919
       47       2.000000       0.063537
       48       2.000000       0.061814
       49       2.266667       0.066629
       50       2.466667       0.070357
       51       2.066667       0.062208
       52       2.200000       0.064313
       53       2.066667       0.061718
       54       2.000000       0.060373
       55       2.066667       0.061913
       56       2.000000       0.059756
       57       2.000000       0.060684
       58       2.200000       0.064926
       59       2.066667       0.061709
       60       2.200000       0.064629
       61       2.133333       0.063122
       62       2.066667       0.061029
       63       2.000000       0.060531
       64       2.000000       0.059925
       65       2.000000       0.059764
       66       2.000000       0.060426
       67       2.000000       0.060262
       68       2.000000       0.060460
       69       2.133333       0.062648
       70       2.200000       0.064300
       71       2.000000       0.060094
       72       2.133333       0.063316
       73       2.000000       0.061062
       74       2.000000       0.060224
       75       2.000000       0.060567
       76       2.000000       0.060913
       77       2.000000       0.062793
       78       2.000000       0.063896
       79       2.200000       0.067978
       80       2.066667       0.065339
       81       2.000000       0.063687
       82       2.133333       0.066623
       83       2.000000       0.064001
       84       2.000000       0.063590
       85       2.066667       0.064834
       86       2.000000       0.063497
       87       2.066667       0.065401
       88       2.000000       0.064500
       89       2.000000       0.064014
       90       2.000000       0.064066
       91       2.000000       0.064488
       92       2.266667       0.069977
       93       2.000000       0.064143
       94       2.000000       0.064312
       95       2.133333       0.067326
       96       2.000000       0.064056
       97       2.000000       0.063970
       98       2.133333       0.067057
       99       2.000000       0.063924
      100       2.066667       0.065353
      101       2.000000       0.064041
      102       2.066667       0.065502
      103       2.200000       0.068002
      104       2.066667       0.065016
      105       2.066667       0.065663
      106       2.333333       0.071203
      107       2.000000       0.063515
      108       2.000000       0.063417
      109       2.000000       0.063435
      110       2.333333       0.071017
      111       2.000000       0.064045
      112       2.000000       0.063664
      113       2.400000       0.072449
      114       2.333333       0.070946
      115       2.000000       0.063372
      116       2.000000       0.063114
      117       2.133333       0.065936
      118       2.400000       0.071634
      119       2.200000       0.067269
      120       2.266667       0.069731
      121       2.066667       0.064594
      122       2.266667       0.069529
      123       2.066667       0.065204
      124       2.000000       0.063212
      125       2.000000       0.063371
      126       2.000000       0.063581
      127       2.000000       0.063300
      128       2.000000       0.063635
      129       2.000000       0.063461
      130       2.000000       0.063468
      131       2.266667       0.069459
      132       2.000000       0.063937
      133       2.266667       0.069702

 Density error is 0.014834933443
                          Error Threshold = 0.003311293305

       Energy                       Rydberg                            eV
   E_KohnSham               -8.490832008327             -115.523696074029
     E_Harris               -8.482550424797             -115.411019349564
      E_Fermi               +0.760367239515              +10.345327029936

 PW ALGORITHM --------------- ION=   1  ELEC=   3--------------------------------
  K-point    CG iter num      Time(Sec)
        1       4.800000       0.126132
        2       4.200000       0.111792
        3       3.133333       0.088295
        4       2.933333       0.084125
        5       2.733333       0.079895
        6       2.533333       0.075703
        7       3.266667       0.092049
        8       5.133333       0.134095
        9       2.666667       0.078137
       10       2.533333       0.075435
       11       2.666667       0.078647
       12       3.000000       0.086091
       13       3.066667       0.087220
       14       2.800000       0.081524
       15       2.733333       0.080300
       16       3.000000       0.085814
       17       3.000000       0.086095
       18       4.133333       0.112116
       19       4.533333       0.120727
       20       3.866667       0.105637
       21       4.266667       0.113652
       22       3.066667       0.088133
       23       2.733333       0.079306
       24       2.466667       0.073794
       25       2.733333       0.079811
       26       2.400000       0.072113
       27       3.400000       0.093895
       28       3.133333       0.088156
       29       2.666667       0.078023
       30       2.800000       0.080812
       31       2.600000       0.076635
       32       2.800000       0.081268
       33       2.733333       0.079968
       34       2.866667       0.082287
       35       3.200000       0.089956
       36       3.600000       0.099141
       37       3.333333       0.093272
       38       2.866667       0.082146
       39       3.133333       0.087955
       40       3.600000       0.098911
       41       2.933333       0.083594
       42       2.866667       0.082562
       43       3.000000       0.085790
       44       2.533333       0.075393
       45       3.133333       0.088707
       46       3.866667       0.104054
       47       4.200000       0.112171
       48       2.600000       0.076770
       49       2.533333       0.074462
       50       2.466667       0.073153
       51       2.666667       0.077415
       52       2.800000       0.080107
       53       2.866667       0.078436
       54       2.733333       0.075462
       55       3.266667       0.086438
       56       2.866667       0.077602
       57       2.666667       0.073947
       58       3.533333       0.092278
       59       3.400000       0.088288
       60       3.000000       0.080996
       61       2.933333       0.079611
       62       2.733333       0.074695
       63       2.866667       0.078492
       64       2.600000       0.072714
       65       3.066667       0.082591
       66       3.200000       0.084594
       67       3.266667       0.086394
       68       2.666667       0.073974
       69       2.533333       0.070873
       70       2.933333       0.079654
       71       3.066667       0.081731
       72       2.733333       0.075853
       73       2.800000       0.076830
       74       3.400000       0.090521
       75       2.733333       0.077910
       76       2.666667       0.078200
       77       3.733333       0.101923
       78       3.466667       0.095960
       79       3.333333       0.093005
       80       3.000000       0.086414
       81       2.666667       0.079121
       82       2.666667       0.078609
       83       2.533333       0.076350
       84       3.600000       0.100026
       85       3.533333       0.098558
       86       3.066667       0.087680
       87       2.800000       0.082344
       88       2.400000       0.073540
       89       2.666667       0.078787
       90       3.200000       0.091519
       91       2.600000       0.077092
       92       2.666667       0.078639
       93       3.133333       0.089650
       94       2.733333       0.079355
       95       2.866667       0.083390
       96       3.200000       0.090180
       97       3.466667       0.096273
       98       3.000000       0.086190
       99       3.866667       0.105906
      100       2.800000       0.081210
      101       2.600000       0.077363
      102       2.466667       0.073853
      103       3.466667       0.096605
      104       2.933333       0.084406
      105       2.933333       0.084947
      106       2.400000       0.072931
      107       2.266667       0.070040
      108       3.066667       0.087846
      109       3.066667       0.087848
      110       2.533333       0.076092
      111       2.533333       0.076066
      112       3.066667       0.088076
      113       2.600000       0.077757
      114       3.000000       0.087553
      115       3.333333       0.094014
      116       3.133333       0.089584
      117       3.400000       0.095087
      118       3.133333       0.089856
      119       2.666667       0.079592
      120       2.333333       0.071711
      121       2.400000       0.073273
      122       3.800000       0.105447
      123       2.933333       0.085331
      124       2.933333       0.085058
      125       2.466667       0.074481
      126       2.333333       0.071504
      127       2.466667       0.074290
      128       2.733333       0.080675
      129       2.466667       0.074087
      130       2.800000       0.079502
      131       2.200000       0.066374
      132       2.600000       0.074992
      133       2.733333       0.077573

 Density error is 0.000147128881
                          Error Threshold = 0.000247248891

       Energy                       Rydberg                            eV
   E_KohnSham               -8.491500449592             -115.532790684018
     E_Harris               -8.491569278850             -115.533727154109
      E_Fermi               +0.761098920255              +10.355282057122

 PW ALGORITHM --------------- ION=   1  ELEC=   4--------------------------------
  K-point    CG iter num      Time(Sec)
        1       9.133333       0.212858
        2       5.266667       0.129604
        3       4.066667       0.104447
        4       3.866667       0.100395
        5       3.933333       0.102200
        6       4.133333       0.106247
        7       4.133333       0.106223
        8       5.066667       0.126622
        9       4.133333       0.106749
       10       3.933333       0.101938
       11       4.000000       0.103298
       12       4.133333       0.106607
       13       6.666667       0.161868
       14       3.666667       0.097792
       15       4.466667       0.114276
[...]
 [spin1_state]        7      20.099977       0.000000
 [spin1_state]        8      22.209583       0.000000
 [spin1_state]        9      23.895672       0.000000
 [spin1_state]       10      25.101618       0.000000
 [spin1_state]       11      26.719169       0.000000
 [spin1_state]       12      28.828698       0.000000
 [spin1_state]       13      32.041218       0.000000
 [spin1_state]       14      33.197577       0.000000
 [spin1_state]       15      36.749205       0.000000

 114/133 kpoint (Cartesian) = 0.666667 1.154701 0.355491 (1401 pws)
 [spin1_state]        1       7.178171       0.004630
 [spin1_state]        2       7.178305       0.004630
 [spin1_state]        3       7.637996       0.004630
 [spin1_state]        4       8.952764       0.004630
 [spin1_state]        5       9.492947       0.004630
 [spin1_state]        6       9.493030       0.004630
 [spin1_state]        7      22.043517       0.000000
 [spin1_state]        8      22.043518       0.000000
 [spin1_state]        9      22.347973       0.000000
 [spin1_state]       10      26.303894       0.000000
 [spin1_state]       11      26.552427       0.000000
 [spin1_state]       12      26.552446       0.000000
 [spin1_state]       13      35.734399       0.000000
 [spin1_state]       14      36.329337       0.000000
 [spin1_state]       15      36.329477       0.000000

 115/133 kpoint (Cartesian) = 0.000000 0.000000 0.304706 (1388 pws)
 [spin1_state]        1      -1.216380       0.001157
 [spin1_state]        2      -1.216233       0.001157
 [spin1_state]        3      14.527163       0.000000
 [spin1_state]        4      14.527175       0.000000
 [spin1_state]        5      26.087384       0.000000
 [spin1_state]        6      26.087384       0.000000
 [spin1_state]        7      26.087531       0.000000
 [spin1_state]        8      26.087531       0.000000
 [spin1_state]        9      26.732458       0.000000
 [spin1_state]       10      26.732458       0.000000
 [spin1_state]       11      26.732625       0.000000
 [spin1_state]       12      26.732625       0.000000
 [spin1_state]       13      27.749440       0.000000
 [spin1_state]       14      27.749608       0.000000
 [spin1_state]       15      30.978477       0.000000

 116/133 kpoint (Cartesian) = 0.916667 0.625463 0.304706 (1398 pws)
 [spin1_state]        1      -1.019840       0.006944
 [spin1_state]        2      -1.019693       0.006944
 [spin1_state]        3      14.705636       0.000000
 [spin1_state]        4      14.705649       0.000000
 [spin1_state]        5      22.513876       0.000000
 [spin1_state]        6      22.514029       0.000000
 [spin1_state]        7      24.206356       0.000000
 [spin1_state]        8      24.206511       0.000000
 [spin1_state]        9      25.895810       0.000000
 [spin1_state]       10      25.895953       0.000000
 [spin1_state]       11      29.007369       0.000000
 [spin1_state]       12      29.007528       0.000000
 [spin1_state]       13      30.744524       0.000000
 [spin1_state]       14      30.744672       0.000000
 [spin1_state]       15      33.068473       0.000000

 117/133 kpoint (Cartesian) = 0.833333 0.673575 0.304706 (1394 pws)
 [spin1_state]        1      -0.430583       0.006944
 [spin1_state]        2      -0.430435       0.006944
 [spin1_state]        3      15.198686       0.000000
 [spin1_state]        4      15.198705       0.000000
 [spin1_state]        5      18.589416       0.000000
 [spin1_state]        6      18.589562       0.000000
 [spin1_state]        7      22.431064       0.000000
 [spin1_state]        8      22.431220       0.000000
 [spin1_state]        9      24.376092       0.000000
 [spin1_state]       10      24.376223       0.000000
 [spin1_state]       11      31.959774       0.000000
 [spin1_state]       12      31.959931       0.000000
 [spin1_state]       13      33.372415       0.000000
 [spin1_state]       14      33.372512       0.000000
 [spin1_state]       15      34.873710       0.000000

 118/133 kpoint (Cartesian) = 0.750000 0.721688 0.304706 (1396 pws)
 [spin1_state]        1       0.549998       0.006944
 [spin1_state]        2       0.550146       0.006944
 [spin1_state]        3      14.513877       0.000000
 [spin1_state]        4      14.514011       0.000000
 [spin1_state]        5      16.527633       0.000000
 [spin1_state]        6      16.527664       0.000000
 [spin1_state]        7      21.044961       0.000000
 [spin1_state]        8      21.045117       0.000000
 [spin1_state]        9      23.082414       0.000000
 [spin1_state]       10      23.082539       0.000000
 [spin1_state]       11      30.823007       0.000000
 [spin1_state]       12      30.823014       0.000000
 [spin1_state]       13      35.239804       0.000000
 [spin1_state]       14      35.239955       0.000000
 [spin1_state]       15      36.696695       0.000000

 119/133 kpoint (Cartesian) = 0.666667 0.769800 0.304706 (1388 pws)
 [spin1_state]        1       1.917784       0.006944
 [spin1_state]        2       1.917932       0.006944
 [spin1_state]        3      11.381597       0.000000
 [spin1_state]        4      11.381743       0.000000
 [spin1_state]        5      17.621922       0.000000
 [spin1_state]        6      17.621944       0.000000
 [spin1_state]        7      20.053794       0.000000
 [spin1_state]        8      20.053950       0.000000
 [spin1_state]        9      22.124845       0.000000
 [spin1_state]       10      22.124961       0.000000
 [spin1_state]       11      27.701632       0.000000
 [spin1_state]       12      27.701638       0.000000
 [spin1_state]       13      35.918789       0.000000
 [spin1_state]       14      35.918789       0.000000
 [spin1_state]       15      37.646775       0.000000

 120/133 kpoint (Cartesian) = 0.583333 0.817913 0.304706 (1412 pws)
 [spin1_state]        1       3.654494       0.006944
 [spin1_state]        2       3.654644       0.006944
 [spin1_state]        3       8.501976       0.006944
 [spin1_state]        4       8.502121       0.006944
 [spin1_state]        5      19.093730       0.000000
 [spin1_state]        6      19.093771       0.000000
 [spin1_state]        7      19.458820       0.000000
 [spin1_state]        8      19.458976       0.000000
 [spin1_state]        9      21.501728       0.000000
 [spin1_state]       10      21.501815       0.000000
 [spin1_state]       11      25.115320       0.000000
 [spin1_state]       12      25.115334       0.000000
 [spin1_state]       13      35.362991       0.000000
 [spin1_state]       14      35.362996       0.000000
 [spin1_state]       15      37.424323       0.000000

 121/133 kpoint (Cartesian) = 0.500000 0.866025 0.304706 (1412 pws)
 [spin1_state]        1       5.306088       0.003472
 [spin1_state]        2       5.306248       0.003472
 [spin1_state]        3       6.465818       0.003472
 [spin1_state]        4       6.465953       0.003472
 [spin1_state]        5      19.260459       0.000000
 [spin1_state]        6      19.260616       0.000000
 [spin1_state]        7      20.117269       0.000000
 [spin1_state]        8      20.117375       0.000000
 [spin1_state]        9      21.166966       0.000000
 [spin1_state]       10      21.166971       0.000000
 [spin1_state]       11      23.847737       0.000000
 [spin1_state]       12      23.847768       0.000000
 [spin1_state]       13      35.170868       0.000000
 [spin1_state]       14      35.170871       0.000000
 [spin1_state]       15      37.300016       0.000000

 122/133 kpoint (Cartesian) = 0.916667 1.587713 0.304706 (1402 pws)
 [spin1_state]        1      -0.626933       0.006944
 [spin1_state]        2      -0.626786       0.006944
 [spin1_state]        3      15.049076       0.000000
 [spin1_state]        4      15.049091       0.000000
 [spin1_state]        5      20.223718       0.000000
 [spin1_state]        6      20.223878       0.000000
 [spin1_state]        7      21.182847       0.000000
 [spin1_state]        8      21.182983       0.000000
 [spin1_state]        9      27.458941       0.000000
 [spin1_state]       10      27.459096       0.000000
 [spin1_state]       11      28.415089       0.000000
 [spin1_state]       12      28.415224       0.000000
 [spin1_state]       13      34.577964       0.000000
 [spin1_state]       14      34.578115       0.000000
 [spin1_state]       15      35.352222       0.000000

 123/133 kpoint (Cartesian) = 0.916667 1.491488 0.304706 (1390 pws)
 [spin1_state]        1       0.158074       0.013889
 [spin1_state]        2       0.158222       0.013889
 [spin1_state]        3      15.516089       0.000000
 [spin1_state]        4      15.516134       0.000000
 [spin1_state]        5      16.950841       0.000000
 [spin1_state]        6      16.950970       0.000000
 [spin1_state]        7      19.372300       0.000000
 [spin1_state]        8      19.372433       0.000000
 [spin1_state]        9      26.393254       0.000000
 [spin1_state]       10      26.393395       0.000000
 [spin1_state]       11      30.889634       0.000000
 [spin1_state]       12      30.889768       0.000000
 [spin1_state]       13      32.810304       0.000000
 [spin1_state]       14      32.810312       0.000000
 [spin1_state]       15      35.311165       0.000000

 124/133 kpoint (Cartesian) = 0.916667 1.395263 0.304706 (1394 pws)
 [spin1_state]        1       1.332804       0.013889
 [spin1_state]        2       1.332952       0.013889
 [spin1_state]        3      13.086778       0.000000
 [spin1_state]        4      13.086924       0.000000
 [spin1_state]        5      16.789688       0.000000
 [spin1_state]        6      16.789746       0.000000
 [spin1_state]        7      18.436259       0.000000
 [spin1_state]        8      18.436360       0.000000
 [spin1_state]        9      25.199435       0.000000
 [spin1_state]       10      25.199570       0.000000
 [spin1_state]       11      29.359325       0.000000
 [spin1_state]       12      29.359334       0.000000
 [spin1_state]       13      33.453235       0.000000
 [spin1_state]       14      33.453287       0.000000
 [spin1_state]       15      35.310930       0.000000

 125/133 kpoint (Cartesian) = 0.916667 1.299038 0.304706 (1394 pws)
 [spin1_state]        1       2.889295       0.013889
 [spin1_state]        2       2.889444       0.013889
 [spin1_state]        3      10.032843       0.013889
 [spin1_state]        4      10.032990       0.013889
 [spin1_state]        5      16.869619       0.000000
 [spin1_state]        6      16.869751       0.000000
 [spin1_state]        7      19.012168       0.000000
 [spin1_state]        8      19.012194       0.000000
 [spin1_state]        9      24.165339       0.000000
 [spin1_state]       10      24.165456       0.000000
 [spin1_state]       11      26.646647       0.000000
 [spin1_state]       12      26.646671       0.000000
 [spin1_state]       13      33.121667       0.000000
 [spin1_state]       14      33.121677       0.000000
 [spin1_state]       15      38.627379       0.000000

 126/133 kpoint (Cartesian) = 0.916667 1.202813 0.304706 (1402 pws)
 [spin1_state]        1       4.767823       0.013889
 [spin1_state]        2       4.767977       0.013889
 [spin1_state]        3       7.389056       0.013889
 [spin1_state]        4       7.389199       0.013889
 [spin1_state]        5      16.607866       0.000000
 [spin1_state]        6      16.608010       0.000000
 [spin1_state]        7      20.644898       0.000000
 [spin1_state]        8      20.644914       0.000000
 [spin1_state]        9      22.730814       0.000000
 [spin1_state]       10      22.730877       0.000000
 [spin1_state]       11      25.162138       0.000000
 [spin1_state]       12      25.162214       0.000000
 [spin1_state]       13      32.784958       0.000000
 [spin1_state]       14      32.784964       0.000000
 [spin1_state]       15      40.013914       0.000000

 127/133 kpoint (Cartesian) = 0.833333 1.443376 0.304706 (1380 pws)
 [spin1_state]        1       1.137541       0.006944
 [spin1_state]        2       1.137689       0.006944
 [spin1_state]        3      14.886775       0.000000
 [spin1_state]        4      14.886937       0.000000
 [spin1_state]        5      15.276868       0.000000
 [spin1_state]        6      15.276971       0.000000
 [spin1_state]        7      17.640487       0.000000
 [spin1_state]        8      17.640525       0.000000
 [spin1_state]        9      29.202480       0.000000
 [spin1_state]       10      29.202632       0.000000
 [spin1_state]       11      29.485363       0.000000
 [spin1_state]       12      29.485464       0.000000
 [spin1_state]       13      31.010207       0.000000
 [spin1_state]       14      31.010207       0.000000
 [spin1_state]       15      32.909941       0.000000

 128/133 kpoint (Cartesian) = 0.833333 1.347151 0.304706 (1394 pws)
 [spin1_state]        1       2.503512       0.013889
 [spin1_state]        2       2.503661       0.013889
 [spin1_state]        3      11.910985       0.000000
 [spin1_state]        4      11.911136       0.000000
 [spin1_state]        5      14.354769       0.000000
 [spin1_state]        6      14.354906       0.000000
 [spin1_state]        7      18.603818       0.000000
 [spin1_state]        8      18.603831       0.000000
 [spin1_state]        9      27.429701       0.000000
 [spin1_state]       10      27.429753       0.000000
 [spin1_state]       11      29.067946       0.000000
 [spin1_state]       12      29.068024       0.000000
 [spin1_state]       13      30.583542       0.000000
 [spin1_state]       14      30.583582       0.000000
 [spin1_state]       15      34.079524       0.000000

 129/133 kpoint (Cartesian) = 0.833333 1.250926 0.304706 (1388 pws)
 [spin1_state]        1       4.237563       0.013889
 [spin1_state]        2       4.237714       0.013889
 [spin1_state]        3       9.062148       0.013889
 [spin1_state]        4       9.062295       0.013889
 [spin1_state]        5      13.794442       0.000000
 [spin1_state]        6      13.794584       0.000000
 [spin1_state]        7      20.214184       0.000000
 [spin1_state]        8      20.214193       0.000000
 [spin1_state]        9      24.886246       0.000000
 [spin1_state]       10      24.886267       0.000000
 [spin1_state]       11      28.303559       0.000000
 [spin1_state]       12      28.303665       0.000000
 [spin1_state]       13      30.176772       0.000000
 [spin1_state]       14      30.176802       0.000000
 [spin1_state]       15      37.858256       0.000000

 130/133 kpoint (Cartesian) = 0.833333 1.154701 0.304706 (1392 pws)
 [spin1_state]        1       5.889896       0.006944
 [spin1_state]        2       5.890056       0.006944
 [spin1_state]        3       7.031600       0.006944
 [spin1_state]        4       7.031738       0.006944
 [spin1_state]        5      13.604914       0.000000
 [spin1_state]        6      13.605056       0.000000
 [spin1_state]        7      21.738429       0.000000
 [spin1_state]        8      21.738435       0.000000
 [spin1_state]        9      23.014284       0.000000
 [spin1_state]       10      23.014304       0.000000
 [spin1_state]       11      28.077746       0.000000
 [spin1_state]       12      28.077856       0.000000
 [spin1_state]       13      30.004539       0.000000
 [spin1_state]       14      30.004567       0.000000
 [spin1_state]       15      41.696509       0.000000

 131/133 kpoint (Cartesian) = 0.750000 1.299038 0.304706 (1394 pws)
 [spin1_state]        1       4.052809       0.006944
 [spin1_state]        2       4.052959       0.006944
 [spin1_state]        3      10.740423       0.000000
 [spin1_state]        4      10.740586       0.000000
 [spin1_state]        5      11.735251       0.000000
 [spin1_state]        6      11.735377       0.000000
 [spin1_state]        7      20.048124       0.000000
 [spin1_state]        8      20.048133       0.000000
 [spin1_state]        9      26.584138       0.000000
 [spin1_state]       10      26.584143       0.000000
 [spin1_state]       11      27.736197       0.000000
 [spin1_state]       12      27.736218       0.000000
 [spin1_state]       13      32.251696       0.000000
 [spin1_state]       14      32.251848       0.000000
 [spin1_state]       15      33.882691       0.000000

 132/133 kpoint (Cartesian) = 0.750000 1.202813 0.304706 (1398 pws)
 [spin1_state]        1       5.919114       0.013889
 [spin1_state]        2       5.919268       0.013889
 [spin1_state]        3       8.473919       0.013889
 [spin1_state]        4       8.474070       0.013889
 [spin1_state]        5      10.990224       0.000000
 [spin1_state]        6      10.990359       0.000000
 [spin1_state]        7      21.828111       0.000000
 [spin1_state]        8      21.828118       0.000000
 [spin1_state]        9      24.448379       0.000000
 [spin1_state]       10      24.448385       0.000000
 [spin1_state]       11      27.012851       0.000000
 [spin1_state]       12      27.012867       0.000000
 [spin1_state]       13      32.549769       0.000000
 [spin1_state]       14      32.549908       0.000000
 [spin1_state]       15      37.291571       0.000000

 133/133 kpoint (Cartesian) = 0.666667 1.154701 0.304706 (1404 pws)
 [spin1_state]        1       7.326552       0.002315
 [spin1_state]        2       7.326707       0.002315
 [spin1_state]        3       8.241296       0.002315
 [spin1_state]        4       8.241474       0.002315
 [spin1_state]        5       9.239996       0.002315
 [spin1_state]        6       9.240101       0.002315
 [spin1_state]        7      23.075082       0.000000
 [spin1_state]        8      23.075093       0.000000
 [spin1_state]        9      24.271109       0.000000
 [spin1_state]       10      24.271121       0.000000
 [spin1_state]       11      25.420144       0.000000
 [spin1_state]       12      25.420172       0.000000
 [spin1_state]       13      36.336113       0.000000
 [spin1_state]       14      36.336259       0.000000
 [spin1_state]       15      36.451482       0.000000



 --------------------------------------------
 !FINAL_ETOT_IS -115.5341207041446410 eV
 --------------------------------------------






  |CLASS_NAME---------|NAME---------------|TIME(Sec)-----|CALLS----|AVG------|PER%-------
  B              Run_pw     plane_wave_line         98.720         1     98.72     99.99%
  C             Cell_PW        opt_cells_pw          98.56         1     98.56     99.82%
  X                 FFT               FFT3D          74.03    131454      0.00     74.98%
  C            wavefunc             wfcinit           3.21         1      3.21      3.25%
  G           Hamilt_PW      diagH_subspace          16.68       798      0.02     16.89%
  H           Hamilt_PW               h_psi          80.00     48556      0.00     81.03%
  H           Hamilt_PW                vloc          79.52     48556      0.00     80.54%
  C                Ions         opt_ions_pw          95.20         1     95.20     96.42%
  D           Electrons     self_consistent          95.20         1     95.20     96.42%
  E           Electrons             c_bands          51.16         3     17.05     51.82%
  F              Hamilt            diagH_pw          84.39       798      0.11     85.48%
  G            Diago_CG                diag          70.30       798      0.09     71.21%
  E           electrons             c_bands          43.93         3     14.64     44.49%
 ----------------------------------------------------------------------------------------

 CLASS_NAME---------|NAME---------------|MEMORY(MB)--------
                                         52.6041
             wavefunc                 evc        42.9831
         Charge_Pulay                Rrho         2.0023
         Charge_Pulay               dRrho         1.7520
         Charge_Pulay                drho         1.7520
 ----------------------------------------------------------
