                                                                                     
                             WELCOME TO ABACUS                                       
                                                                                     
               'Atomic-orbital Based Ab-initio Computation at UStc'                  
                                                                                     
                     Website: http://abacus.ustc.edu.cn/                             
                                                                                     
    Version: Parallel, in development
    Processor Number is 1
    Start Time is Fri Jul 30 20:07:54 2021
                                                                                     
 ------------------------------------------------------------------------------------

 READING GENERAL INFORMATION
                           global_out_dir = OUT.blpstest/
                           global_in_card = INPUT
                               pseudo_dir = ./
                              pseudo_type = blps
                                    DRANK = 1
                                    DSIZE = 1
                                   DCOLOR = 1
                                    GRANK = 1
                                    GSIZE = 1




 >>>>>>>>>>>>>>>>>>>>>>>>>>>>>>>>>>>>>>>>>>>>>>>>>>>>>>>>>>>>>>>>>>>>>>
 |                                                                    |
 | Reading atom information in unitcell:                              |
 | From the input file and the structure file we know the number of   |
 | different elments in this unitcell, then we list the detail        |
 | information for each element, especially the zeta and polar atomic |
 | orbital number for each element. The total atom number is counted. |
 | We calculate the nearest atom distance for each atom and show the  |
 | Cartesian and Direct coordinates for each atom. We list the file   |
 | address for atomic orbitals. The volume and the lattice vectors    |
 | in real and reciprocal space is also shown.                        |
 |                                                                    |
 <<<<<<<<<<<<<<<<<<<<<<<<<<<<<<<<<<<<<<<<<<<<<<<<<<<<<<<<<<<<<<<<<<<<<<




 READING UNITCELL INFORMATION
                                    ntype = 1
                 atom label for species 1 = Al
                  lattice constant (Bohr) = 5.31846
              lattice constant (Angstrom) = 2.81441

 READING ATOM TYPE 1
                               atom label = Al
                      start magnetization = FALSE
                      L=0, number of zeta = 1
                      L=1, number of zeta = 1
                      L=2, number of zeta = 1
             number of atom for this type = 2

                        TOTAL ATOM NUMBER = 2

 DIRECT COORDINATES
         atom                   x                   y                   z                 mag
     taud_Al1                   0                   0                   0                   0
     taud_Al2            0.666667            0.333333                 0.5                   0


                          Volume (Bohr^3) = 213.785
                             Volume (A^3) = 31.6796

 Lattice vectors: (Cartesian coordinate: in unit of a_0)
                   +1                  +0                  +0
                 -0.5           +0.866025                  +0
                   +0                  +0            +1.64092
 Reciprocal vectors: (Cartesian coordinate: in unit of 2 pi/a_0)
                   +1            +0.57735                  -0
                   -0             +1.1547                  -0
                   +0                  -0           +0.609413




 >>>>>>>>>>>>>>>>>>>>>>>>>>>>>>>>>>>>>>>>>>>>>>>>>>>>>>>>>>>>>>>>>>>>>>
 |                                                                    |
 | Reading pseudopotentials files:                                    |
 | The pseudopotential file is in UPF format. The 'NC' indicates that |
 | the type of pseudopotential is 'norm conserving'. Functional of    |
 | exchange and correlation is decided by 4 given parameters in UPF   |
 | file.  We also read in the 'core correction' if there exists.      |
 | Also we can read the valence electrons number and the maximal      |
 | angular momentum used in this pseudopotential. We also read in the |
 | trail wave function, trail atomic density and local-pseudopotential|
 | on logrithmic grid. The non-local pseudopotential projector is also|
 | read in if there is any.                                           |
 |                                                                    |
 <<<<<<<<<<<<<<<<<<<<<<<<<<<<<<<<<<<<<<<<<<<<<<<<<<<<<<<<<<<<<<<<<<<<<<




                PAO radial cut off (Bohr) = 16

 Read in pseudopotential file is al.lda.lps
                     pseudopotential type = 
                            functional Ex = LDA
                            functional Ec = LDA
                          functional GCEx = NOGX
                          functional GCEc = NOGC
                 nonlocal core correction = 0
                        valence electrons = 3
                                     lmax = 0
                           number of zeta = 0
                     number of projectors = 0
     initial pseudo atomic orbital number = 0
                                   NLOCAL = 18

 SETUP THE ELECTRONS NUMBER
            electron number of element Al = 3
      total electron number of element Al = 6
                           occupied bands = 3
                                   NBANDS = 15
 DONE : SETUP UNITCELL Time : 0.0193892 (SEC)





 >>>>>>>>>>>>>>>>>>>>>>>>>>>>>>>>>>>>>>>>>>>>>>>>>>>>>>>>>>>>>>>>>>>>>>
 |                                                                    |
 | Doing symmetry analysis:                                           |
 | We calculate the norm of 3 vectors and the angles between them,    |
 | the type of Bravais lattice is given. We can judge if the unticell |
 | is a primitive cell. Finally we give the point group operation for |
 | this unitcell. We we use the point group operations to do symmetry |
 | analysis on given k-point mesh and the charge density.             |
 |                                                                    |
 <<<<<<<<<<<<<<<<<<<<<<<<<<<<<<<<<<<<<<<<<<<<<<<<<<<<<<<<<<<<<<<<<<<<<<




 LATTICE VECTORS: (CARTESIAN COORDINATE: IN UNIT OF A0)
                   +1                  +0                  +0
                 -0.5           +0.866025                  +0
                   +0                  +0            +1.64092
                       right hand lattice = 1
                                   NORM_A = 1
                                   NORM_B = 1
                                   NORM_C = 1.64092
                           ALPHA (DEGREE) = 120
                           BETA  (DEGREE) = 90
                           GAMMA (DEGREE) = 90
                             BRAVAIS TYPE = 4
                     BRAVAIS LATTICE NAME = 04. Hexagonal cell
 STANDARD LATTICE VECTORS: (CARTESIAN COORDINATE: IN UNIT OF A0)
                   +1                  +0                  +0
                 -0.5           +0.866025                  +0
                   +0                  +0            +1.64092
                                    IBRAV = 4
                                  BRAVAIS = HEXAGONAL CELL
                       LATTICE CONSTANT A = 5.58871
                                C/A RATIO = 0.663993
                                    ibrav = 4
                        ROTATION MATRICES = 24
              PURE POINT GROUP OPERATIONS = 12
                   SPACE GROUP OPERATIONS = 12
                                       C2 = 3
                                       C3 = 2
                                       C4 = 0
                                       C6 = 0
                                       S1 = 4
                                       S3 = 2
                                       S4 = 0
                                       S6 = 0
                              POINT GROUP = D_3h
 DONE : SYMMETRY Time : 0.073529 (SEC)





 >>>>>>>>>>>>>>>>>>>>>>>>>>>>>>>>>>>>>>>>>>>>>>>>>>>>>>>>>>>>>>>>>>>>>>
 |                                                                    |
 | Setup K-points                                                     |
 | We setup the k-points according to input parameters.               |
 | The reduced k-points are set according to symmetry operations.     |
 | We treat the spin as another set of k-points.                      |
 |                                                                    |
 <<<<<<<<<<<<<<<<<<<<<<<<<<<<<<<<<<<<<<<<<<<<<<<<<<<<<<<<<<<<<<<<<<<<<<





 SETUP K-POINTS
                                    nspin = 1
                   Input type of k points = Monkhorst-Pack(Gamma)
                                   nkstot = 1728
                               nkstot_ibz = 133
      IBZ             DirectX             DirectY             DirectZ              Weight    ibz2bz
        1                   0                   0                   0         0.000578704         0
        2            0.916667           0.0833333                   0          0.00347222         1
        3            0.833333            0.166667                   0          0.00347222         2
        4                0.75                0.25                   0          0.00347222         3
        5            0.666667            0.333333                   0          0.00347222         4
        6            0.583333            0.416667                   0          0.00347222         5
        7                 0.5                 0.5                   0          0.00173611         6
        8            0.916667            0.916667                   0          0.00347222        13
        9            0.916667            0.833333                   0          0.00694444        14
       10            0.916667                0.75                   0          0.00694444        15
       11            0.916667            0.666667                   0          0.00694444        16
       12            0.916667            0.583333                   0          0.00694444        17
       13            0.833333            0.833333                   0          0.00347222        26
       14            0.833333                0.75                   0          0.00694444        27
       15            0.833333            0.666667                   0          0.00694444        28
       16            0.833333            0.583333                   0          0.00347222        29
       17                0.75                0.75                   0          0.00347222        39
       18                0.75            0.666667                   0          0.00694444        40
       19            0.666667            0.666667                   0          0.00115741        52
       20                   0                   0            0.916667          0.00115741       144
       21            0.916667           0.0833333            0.916667          0.00694444       145
       22            0.833333            0.166667            0.916667          0.00694444       146
       23                0.75                0.25            0.916667          0.00694444       147
       24            0.666667            0.333333            0.916667          0.00694444       148
       25            0.583333            0.416667            0.916667          0.00694444       149
       26                 0.5                 0.5            0.916667          0.00347222       150
       27            0.916667            0.916667            0.916667          0.00694444       157
       28            0.916667            0.833333            0.916667           0.0138889       158
       29            0.916667                0.75            0.916667           0.0138889       159
       30            0.916667            0.666667            0.916667           0.0138889       160
       31            0.916667            0.583333            0.916667           0.0138889       161
       32            0.833333            0.833333            0.916667          0.00694444       170
       33            0.833333                0.75            0.916667           0.0138889       171
       34            0.833333            0.666667            0.916667           0.0138889       172
       35            0.833333            0.583333            0.916667          0.00694444       173
       36                0.75                0.75            0.916667          0.00694444       183
       37                0.75            0.666667            0.916667           0.0138889       184
       38            0.666667            0.666667            0.916667          0.00231481       196
       39                   0                   0            0.833333          0.00115741       288
       40            0.916667           0.0833333            0.833333          0.00694444       289
       41            0.833333            0.166667            0.833333          0.00694444       290
       42                0.75                0.25            0.833333          0.00694444       291
       43            0.666667            0.333333            0.833333          0.00694444       292
       44            0.583333            0.416667            0.833333          0.00694444       293
       45                 0.5                 0.5            0.833333          0.00347222       294
       46            0.916667            0.916667            0.833333          0.00694444       301
       47            0.916667            0.833333            0.833333           0.0138889       302
       48            0.916667                0.75            0.833333           0.0138889       303
       49            0.916667            0.666667            0.833333           0.0138889       304
       50            0.916667            0.583333            0.833333           0.0138889       305
       51            0.833333            0.833333            0.833333          0.00694444       314
       52            0.833333                0.75            0.833333           0.0138889       315
       53            0.833333            0.666667            0.833333           0.0138889       316
       54            0.833333            0.583333            0.833333          0.00694444       317
       55                0.75                0.75            0.833333          0.00694444       327
       56                0.75            0.666667            0.833333           0.0138889       328
       57            0.666667            0.666667            0.833333          0.00231481       340
       58                   0                   0                0.75          0.00115741       432
       59            0.916667           0.0833333                0.75          0.00694444       433
       60            0.833333            0.166667                0.75          0.00694444       434
       61                0.75                0.25                0.75          0.00694444       435
       62            0.666667            0.333333                0.75          0.00694444       436
       63            0.583333            0.416667                0.75          0.00694444       437
       64                 0.5                 0.5                0.75          0.00347222       438
       65            0.916667            0.916667                0.75          0.00694444       445
       66            0.916667            0.833333                0.75           0.0138889       446
       67            0.916667                0.75                0.75           0.0138889       447
       68            0.916667            0.666667                0.75           0.0138889       448
       69            0.916667            0.583333                0.75           0.0138889       449
       70            0.833333            0.833333                0.75          0.00694444       458
       71            0.833333                0.75                0.75           0.0138889       459
       72            0.833333            0.666667                0.75           0.0138889       460
       73            0.833333            0.583333                0.75          0.00694444       461
       74                0.75                0.75                0.75          0.00694444       471
       75                0.75            0.666667                0.75           0.0138889       472
       76            0.666667            0.666667                0.75          0.00231481       484
       77                   0                   0            0.666667          0.00115741       576
       78            0.916667           0.0833333            0.666667          0.00694444       577
       79            0.833333            0.166667            0.666667          0.00694444       578
       80                0.75                0.25            0.666667          0.00694444       579
       81            0.666667            0.333333            0.666667          0.00694444       580
       82            0.583333            0.416667            0.666667          0.00694444       581
       83                 0.5                 0.5            0.666667          0.00347222       582
       84            0.916667            0.916667            0.666667          0.00694444       589
       85            0.916667            0.833333            0.666667           0.0138889       590
       86            0.916667                0.75            0.666667           0.0138889       591
       87            0.916667            0.666667            0.666667           0.0138889       592
       88            0.916667            0.583333            0.666667           0.0138889       593
       89            0.833333            0.833333            0.666667          0.00694444       602
       90            0.833333                0.75            0.666667           0.0138889       603
       91            0.833333            0.666667            0.666667           0.0138889       604
       92            0.833333            0.583333            0.666667          0.00694444       605
       93                0.75                0.75            0.666667          0.00694444       615
       94                0.75            0.666667            0.666667           0.0138889       616
       95            0.666667            0.666667            0.666667          0.00231481       628
       96                   0                   0            0.583333          0.00115741       720
       97            0.916667           0.0833333            0.583333          0.00694444       721
       98            0.833333            0.166667            0.583333          0.00694444       722
       99                0.75                0.25            0.583333          0.00694444       723
      100            0.666667            0.333333            0.583333          0.00694444       724
      101            0.583333            0.416667            0.583333          0.00694444       725
      102                 0.5                 0.5            0.583333          0.00347222       726
      103            0.916667            0.916667            0.583333          0.00694444       733
      104            0.916667            0.833333            0.583333           0.0138889       734
      105            0.916667                0.75            0.583333           0.0138889       735
      106            0.916667            0.666667            0.583333           0.0138889       736
      107            0.916667            0.583333            0.583333           0.0138889       737
      108            0.833333            0.833333            0.583333          0.00694444       746
      109            0.833333                0.75            0.583333           0.0138889       747
      110            0.833333            0.666667            0.583333           0.0138889       748
      111            0.833333            0.583333            0.583333          0.00694444       749
      112                0.75                0.75            0.583333          0.00694444       759
      113                0.75            0.666667            0.583333           0.0138889       760
      114            0.666667            0.666667            0.583333          0.00231481       772
      115                   0                   0                 0.5         0.000578704       864
      116            0.916667           0.0833333                 0.5          0.00347222       865
      117            0.833333            0.166667                 0.5          0.00347222       866
      118                0.75                0.25                 0.5          0.00347222       867
      119            0.666667            0.333333                 0.5          0.00347222       868
      120            0.583333            0.416667                 0.5          0.00347222       869
      121                 0.5                 0.5                 0.5          0.00173611       870
      122            0.916667            0.916667                 0.5          0.00347222       877
      123            0.916667            0.833333                 0.5          0.00694444       878
      124            0.916667                0.75                 0.5          0.00694444       879
      125            0.916667            0.666667                 0.5          0.00694444       880
      126            0.916667            0.583333                 0.5          0.00694444       881
      127            0.833333            0.833333                 0.5          0.00347222       890
      128            0.833333                0.75                 0.5          0.00694444       891
      129            0.833333            0.666667                 0.5          0.00694444       892
      130            0.833333            0.583333                 0.5          0.00347222       893
      131                0.75                0.75                 0.5          0.00347222       903
      132                0.75            0.666667                 0.5          0.00694444       904
      133            0.666667            0.666667                 0.5          0.00115741       916
                               nkstot now = 133

  KPOINTS            DIRECT_X            DIRECT_Y            DIRECT_Z              WEIGHT
        1                   0                   0                   0         0.000578704
        2            0.916667           0.0833333                   0          0.00347222
        3            0.833333            0.166667                   0          0.00347222
        4                0.75                0.25                   0          0.00347222
        5            0.666667            0.333333                   0          0.00347222
        6            0.583333            0.416667                   0          0.00347222
        7                 0.5                 0.5                   0          0.00173611
        8            0.916667            0.916667                   0          0.00347222
        9            0.916667            0.833333                   0          0.00694444
       10            0.916667                0.75                   0          0.00694444
       11            0.916667            0.666667                   0          0.00694444
       12            0.916667            0.583333                   0          0.00694444
       13            0.833333            0.833333                   0          0.00347222
       14            0.833333                0.75                   0          0.00694444
       15            0.833333            0.666667                   0          0.00694444
       16            0.833333            0.583333                   0          0.00347222
       17                0.75                0.75                   0          0.00347222
       18                0.75            0.666667                   0          0.00694444
       19            0.666667            0.666667                   0          0.00115741
       20                   0                   0            0.916667          0.00115741
       21            0.916667           0.0833333            0.916667          0.00694444
       22            0.833333            0.166667            0.916667          0.00694444
       23                0.75                0.25            0.916667          0.00694444
       24            0.666667            0.333333            0.916667          0.00694444
       25            0.583333            0.416667            0.916667          0.00694444
       26                 0.5                 0.5            0.916667          0.00347222
       27            0.916667            0.916667            0.916667          0.00694444
       28            0.916667            0.833333            0.916667           0.0138889
       29            0.916667                0.75            0.916667           0.0138889
       30            0.916667            0.666667            0.916667           0.0138889
       31            0.916667            0.583333            0.916667           0.0138889
       32            0.833333            0.833333            0.916667          0.00694444
       33            0.833333                0.75            0.916667           0.0138889
       34            0.833333            0.666667            0.916667           0.0138889
       35            0.833333            0.583333            0.916667          0.00694444
       36                0.75                0.75            0.916667          0.00694444
       37                0.75            0.666667            0.916667           0.0138889
       38            0.666667            0.666667            0.916667          0.00231481
       39                   0                   0            0.833333          0.00115741
       40            0.916667           0.0833333            0.833333          0.00694444
       41            0.833333            0.166667            0.833333          0.00694444
       42                0.75                0.25            0.833333          0.00694444
       43            0.666667            0.333333            0.833333          0.00694444
       44            0.583333            0.416667            0.833333          0.00694444
       45                 0.5                 0.5            0.833333          0.00347222
       46            0.916667            0.916667            0.833333          0.00694444
       47            0.916667            0.833333            0.833333           0.0138889
       48            0.916667                0.75            0.833333           0.0138889
       49            0.916667            0.666667            0.833333           0.0138889
       50            0.916667            0.583333            0.833333           0.0138889
       51            0.833333            0.833333            0.833333          0.00694444
       52            0.833333                0.75            0.833333           0.0138889
       53            0.833333            0.666667            0.833333           0.0138889
       54            0.833333            0.583333            0.833333          0.00694444
       55                0.75                0.75            0.833333          0.00694444
       56                0.75            0.666667            0.833333           0.0138889
       57            0.666667            0.666667            0.833333          0.00231481
       58                   0                   0                0.75          0.00115741
       59            0.916667           0.0833333                0.75          0.00694444
       60            0.833333            0.166667                0.75          0.00694444
       61                0.75                0.25                0.75          0.00694444
       62            0.666667            0.333333                0.75          0.00694444
       63            0.583333            0.416667                0.75          0.00694444
       64                 0.5                 0.5                0.75          0.00347222
       65            0.916667            0.916667                0.75          0.00694444
       66            0.916667            0.833333                0.75           0.0138889
       67            0.916667                0.75                0.75           0.0138889
       68            0.916667            0.666667                0.75           0.0138889
       69            0.916667            0.583333                0.75           0.0138889
       70            0.833333            0.833333                0.75          0.00694444
       71            0.833333                0.75                0.75           0.0138889
       72            0.833333            0.666667                0.75           0.0138889
       73            0.833333            0.583333                0.75          0.00694444
       74                0.75                0.75                0.75          0.00694444
       75                0.75            0.666667                0.75           0.0138889
       76            0.666667            0.666667                0.75          0.00231481
       77                   0                   0            0.666667          0.00115741
       78            0.916667           0.0833333            0.666667          0.00694444
       79            0.833333            0.166667            0.666667          0.00694444
       80                0.75                0.25            0.666667          0.00694444
       81            0.666667            0.333333            0.666667          0.00694444
       82            0.583333            0.416667            0.666667          0.00694444
       83                 0.5                 0.5            0.666667          0.00347222
       84            0.916667            0.916667            0.666667          0.00694444
       85            0.916667            0.833333            0.666667           0.0138889
       86            0.916667                0.75            0.666667           0.0138889
       87            0.916667            0.666667            0.666667           0.0138889
       88            0.916667            0.583333            0.666667           0.0138889
       89            0.833333            0.833333            0.666667          0.00694444
       90            0.833333                0.75            0.666667           0.0138889
       91            0.833333            0.666667            0.666667           0.0138889
       92            0.833333            0.583333            0.666667          0.00694444
       93                0.75                0.75            0.666667          0.00694444
       94                0.75            0.666667            0.666667           0.0138889
       95            0.666667            0.666667            0.666667          0.00231481
       96                   0                   0            0.583333          0.00115741
       97            0.916667           0.0833333            0.583333          0.00694444
       98            0.833333            0.166667            0.583333          0.00694444
       99                0.75                0.25            0.583333          0.00694444
      100            0.666667            0.333333            0.583333          0.00694444
      101            0.583333            0.416667            0.583333          0.00694444
      102                 0.5                 0.5            0.583333          0.00347222
      103            0.916667            0.916667            0.583333          0.00694444
      104            0.916667            0.833333            0.583333           0.0138889
      105            0.916667                0.75            0.583333           0.0138889
      106            0.916667            0.666667            0.583333           0.0138889
      107            0.916667            0.583333            0.583333           0.0138889
      108            0.833333            0.833333            0.583333          0.00694444
      109            0.833333                0.75            0.583333           0.0138889
      110            0.833333            0.666667            0.583333           0.0138889
      111            0.833333            0.583333            0.583333          0.00694444
      112                0.75                0.75            0.583333          0.00694444
      113                0.75            0.666667            0.583333           0.0138889
      114            0.666667            0.666667            0.583333          0.00231481
      115                   0                   0                 0.5         0.000578704
      116            0.916667           0.0833333                 0.5          0.00347222
      117            0.833333            0.166667                 0.5          0.00347222
      118                0.75                0.25                 0.5          0.00347222
      119            0.666667            0.333333                 0.5          0.00347222
      120            0.583333            0.416667                 0.5          0.00347222
      121                 0.5                 0.5                 0.5          0.00173611
      122            0.916667            0.916667                 0.5          0.00347222
      123            0.916667            0.833333                 0.5          0.00694444
      124            0.916667                0.75                 0.5          0.00694444
      125            0.916667            0.666667                 0.5          0.00694444
      126            0.916667            0.583333                 0.5          0.00694444
      127            0.833333            0.833333                 0.5          0.00347222
      128            0.833333                0.75                 0.5          0.00694444
      129            0.833333            0.666667                 0.5          0.00694444
      130            0.833333            0.583333                 0.5          0.00347222
      131                0.75                0.75                 0.5          0.00347222
      132                0.75            0.666667                 0.5          0.00694444
      133            0.666667            0.666667                 0.5          0.00115741

           k-point number in this process = 133
       minimum distributed K point number = 133

  KPOINTS         CARTESIAN_X         CARTESIAN_Y         CARTESIAN_Z              WEIGHT
        1                   0                   0                   0          0.00115741
        2            0.916667            0.625463                   0          0.00694444
        3            0.833333            0.673575                   0          0.00694444
        4                0.75            0.721688                   0          0.00694444
        5            0.666667              0.7698                   0          0.00694444
        6            0.583333            0.817913                   0          0.00694444
        7                 0.5            0.866025                   0          0.00347222
        8            0.916667             1.58771                   0          0.00694444
        9            0.916667             1.49149                   0           0.0138889
       10            0.916667             1.39526                   0           0.0138889
       11            0.916667             1.29904                   0           0.0138889
       12            0.916667             1.20281                   0           0.0138889
       13            0.833333             1.44338                   0          0.00694444
       14            0.833333             1.34715                   0           0.0138889
       15            0.833333             1.25093                   0           0.0138889
       16            0.833333              1.1547                   0          0.00694444
       17                0.75             1.29904                   0          0.00694444
       18                0.75             1.20281                   0           0.0138889
       19            0.666667              1.1547                   0          0.00231481
       20                   0                   0            0.558629          0.00231481
       21            0.916667            0.625463            0.558629           0.0138889
       22            0.833333            0.673575            0.558629           0.0138889
       23                0.75            0.721688            0.558629           0.0138889
       24            0.666667              0.7698            0.558629           0.0138889
       25            0.583333            0.817913            0.558629           0.0138889
       26                 0.5            0.866025            0.558629          0.00694444
       27            0.916667             1.58771            0.558629           0.0138889
       28            0.916667             1.49149            0.558629           0.0277778
       29            0.916667             1.39526            0.558629           0.0277778
       30            0.916667             1.29904            0.558629           0.0277778
       31            0.916667             1.20281            0.558629           0.0277778
       32            0.833333             1.44338            0.558629           0.0138889
       33            0.833333             1.34715            0.558629           0.0277778
       34            0.833333             1.25093            0.558629           0.0277778
       35            0.833333              1.1547            0.558629           0.0138889
       36                0.75             1.29904            0.558629           0.0138889
       37                0.75             1.20281            0.558629           0.0277778
       38            0.666667              1.1547            0.558629          0.00462963
       39                   0                   0            0.507844          0.00231481
       40            0.916667            0.625463            0.507844           0.0138889
       41            0.833333            0.673575            0.507844           0.0138889
       42                0.75            0.721688            0.507844           0.0138889
       43            0.666667              0.7698            0.507844           0.0138889
       44            0.583333            0.817913            0.507844           0.0138889
       45                 0.5            0.866025            0.507844          0.00694444
       46            0.916667             1.58771            0.507844           0.0138889
       47            0.916667             1.49149            0.507844           0.0277778
       48            0.916667             1.39526            0.507844           0.0277778
       49            0.916667             1.29904            0.507844           0.0277778
       50            0.916667             1.20281            0.507844           0.0277778
       51            0.833333             1.44338            0.507844           0.0138889
       52            0.833333             1.34715            0.507844           0.0277778
       53            0.833333             1.25093            0.507844           0.0277778
       54            0.833333              1.1547            0.507844           0.0138889
       55                0.75             1.29904            0.507844           0.0138889
       56                0.75             1.20281            0.507844           0.0277778
       57            0.666667              1.1547            0.507844          0.00462963
       58                   0                   0             0.45706          0.00231481
       59            0.916667            0.625463             0.45706           0.0138889
       60            0.833333            0.673575             0.45706           0.0138889
       61                0.75            0.721688             0.45706           0.0138889
       62            0.666667              0.7698             0.45706           0.0138889
       63            0.583333            0.817913             0.45706           0.0138889
       64                 0.5            0.866025             0.45706          0.00694444
       65            0.916667             1.58771             0.45706           0.0138889
       66            0.916667             1.49149             0.45706           0.0277778
       67            0.916667             1.39526             0.45706           0.0277778
       68            0.916667             1.29904             0.45706           0.0277778
       69            0.916667             1.20281             0.45706           0.0277778
       70            0.833333             1.44338             0.45706           0.0138889
       71            0.833333             1.34715             0.45706           0.0277778
       72            0.833333             1.25093             0.45706           0.0277778
       73            0.833333              1.1547             0.45706           0.0138889
       74                0.75             1.29904             0.45706           0.0138889
       75                0.75             1.20281             0.45706           0.0277778
       76            0.666667              1.1547             0.45706          0.00462963
       77                   0                   0            0.406275          0.00231481
       78            0.916667            0.625463            0.406275           0.0138889
       79            0.833333            0.673575            0.406275           0.0138889
       80                0.75            0.721688            0.406275           0.0138889
       81            0.666667              0.7698            0.406275           0.0138889
       82            0.583333            0.817913            0.406275           0.0138889
       83                 0.5            0.866025            0.406275          0.00694444
       84            0.916667             1.58771            0.406275           0.0138889
       85            0.916667             1.49149            0.406275           0.0277778
       86            0.916667             1.39526            0.406275           0.0277778
       87            0.916667             1.29904            0.406275           0.0277778
       88            0.916667             1.20281            0.406275           0.0277778
       89            0.833333             1.44338            0.406275           0.0138889
       90            0.833333             1.34715            0.406275           0.0277778
       91            0.833333             1.25093            0.406275           0.0277778
       92            0.833333              1.1547            0.406275           0.0138889
       93                0.75             1.29904            0.406275           0.0138889
       94                0.75             1.20281            0.406275           0.0277778
       95            0.666667              1.1547            0.406275          0.00462963
       96                   0                   0            0.355491          0.00231481
       97            0.916667            0.625463            0.355491           0.0138889
       98            0.833333            0.673575            0.355491           0.0138889
       99                0.75            0.721688            0.355491           0.0138889
      100            0.666667              0.7698            0.355491           0.0138889
      101            0.583333            0.817913            0.355491           0.0138889
      102                 0.5            0.866025            0.355491          0.00694444
      103            0.916667             1.58771            0.355491           0.0138889
      104            0.916667             1.49149            0.355491           0.0277778
      105            0.916667             1.39526            0.355491           0.0277778
      106            0.916667             1.29904            0.355491           0.0277778
      107            0.916667             1.20281            0.355491           0.0277778
      108            0.833333             1.44338            0.355491           0.0138889
      109            0.833333             1.34715            0.355491           0.0277778
      110            0.833333             1.25093            0.355491           0.0277778
      111            0.833333              1.1547            0.355491           0.0138889
      112                0.75             1.29904            0.355491           0.0138889
      113                0.75             1.20281            0.355491           0.0277778
      114            0.666667              1.1547            0.355491          0.00462963
      115                   0                   0            0.304706          0.00115741
      116            0.916667            0.625463            0.304706          0.00694444
      117            0.833333            0.673575            0.304706          0.00694444
      118                0.75            0.721688            0.304706          0.00694444
      119            0.666667              0.7698            0.304706          0.00694444
      120            0.583333            0.817913            0.304706          0.00694444
      121                 0.5            0.866025            0.304706          0.00347222
      122            0.916667             1.58771            0.304706          0.00694444
      123            0.916667             1.49149            0.304706           0.0138889
      124            0.916667             1.39526            0.304706           0.0138889
      125            0.916667             1.29904            0.304706           0.0138889
      126            0.916667             1.20281            0.304706           0.0138889
      127            0.833333             1.44338            0.304706          0.00694444
      128            0.833333             1.34715            0.304706           0.0138889
      129            0.833333             1.25093            0.304706           0.0138889
      130            0.833333              1.1547            0.304706          0.00694444
      131                0.75             1.29904            0.304706          0.00694444
      132                0.75             1.20281            0.304706           0.0138889
      133            0.666667              1.1547            0.304706          0.00231481

  KPOINTS            DIRECT_X            DIRECT_Y            DIRECT_Z              WEIGHT
        1                   0                   0                   0          0.00115741
        2            0.916667           0.0833333                   0          0.00694444
        3            0.833333            0.166667                   0          0.00694444
        4                0.75                0.25                   0          0.00694444
        5            0.666667            0.333333                   0          0.00694444
        6            0.583333            0.416667                   0          0.00694444
        7                 0.5                 0.5                   0          0.00347222
        8            0.916667            0.916667                   0          0.00694444
        9            0.916667            0.833333                   0           0.0138889
       10            0.916667                0.75                   0           0.0138889
       11            0.916667            0.666667                   0           0.0138889
       12            0.916667            0.583333                   0           0.0138889
       13            0.833333            0.833333                   0          0.00694444
       14            0.833333                0.75                   0           0.0138889
       15            0.833333            0.666667                   0           0.0138889
       16            0.833333            0.583333                   0          0.00694444
       17                0.75                0.75                   0          0.00694444
       18                0.75            0.666667                   0           0.0138889
       19            0.666667            0.666667                   0          0.00231481
       20                   0                   0            0.916667          0.00231481
       21            0.916667           0.0833333            0.916667           0.0138889
       22            0.833333            0.166667            0.916667           0.0138889
       23                0.75                0.25            0.916667           0.0138889
       24            0.666667            0.333333            0.916667           0.0138889
       25            0.583333            0.416667            0.916667           0.0138889
       26                 0.5                 0.5            0.916667          0.00694444
       27            0.916667            0.916667            0.916667           0.0138889
       28            0.916667            0.833333            0.916667           0.0277778
       29            0.916667                0.75            0.916667           0.0277778
       30            0.916667            0.666667            0.916667           0.0277778
       31            0.916667            0.583333            0.916667           0.0277778
       32            0.833333            0.833333            0.916667           0.0138889
       33            0.833333                0.75            0.916667           0.0277778
       34            0.833333            0.666667            0.916667           0.0277778
       35            0.833333            0.583333            0.916667           0.0138889
       36                0.75                0.75            0.916667           0.0138889
       37                0.75            0.666667            0.916667           0.0277778
       38            0.666667            0.666667            0.916667          0.00462963
       39                   0                   0            0.833333          0.00231481
       40            0.916667           0.0833333            0.833333           0.0138889
       41            0.833333            0.166667            0.833333           0.0138889
       42                0.75                0.25            0.833333           0.0138889
       43            0.666667            0.333333            0.833333           0.0138889
       44            0.583333            0.416667            0.833333           0.0138889
       45                 0.5                 0.5            0.833333          0.00694444
       46            0.916667            0.916667            0.833333           0.0138889
       47            0.916667            0.833333            0.833333           0.0277778
       48            0.916667                0.75            0.833333           0.0277778
       49            0.916667            0.666667            0.833333           0.0277778
       50            0.916667            0.583333            0.833333           0.0277778
       51            0.833333            0.833333            0.833333           0.0138889
       52            0.833333                0.75            0.833333           0.0277778
       53            0.833333            0.666667            0.833333           0.0277778
       54            0.833333            0.583333            0.833333           0.0138889
       55                0.75                0.75            0.833333           0.0138889
       56                0.75            0.666667            0.833333           0.0277778
       57            0.666667            0.666667            0.833333          0.00462963
       58                   0                   0                0.75          0.00231481
       59            0.916667           0.0833333                0.75           0.0138889
       60            0.833333            0.166667                0.75           0.0138889
       61                0.75                0.25                0.75           0.0138889
       62            0.666667            0.333333                0.75           0.0138889
       63            0.583333            0.416667                0.75           0.0138889
       64                 0.5                 0.5                0.75          0.00694444
       65            0.916667            0.916667                0.75           0.0138889
       66            0.916667            0.833333                0.75           0.0277778
       67            0.916667                0.75                0.75           0.0277778
       68            0.916667            0.666667                0.75           0.0277778
       69            0.916667            0.583333                0.75           0.0277778
       70            0.833333            0.833333                0.75           0.0138889
       71            0.833333                0.75                0.75           0.0277778
       72            0.833333            0.666667                0.75           0.0277778
       73            0.833333            0.583333                0.75           0.0138889
       74                0.75                0.75                0.75           0.0138889
       75                0.75            0.666667                0.75           0.0277778
       76            0.666667            0.666667                0.75          0.00462963
       77                   0                   0            0.666667          0.00231481
       78            0.916667           0.0833333            0.666667           0.0138889
       79            0.833333            0.166667            0.666667           0.0138889
       80                0.75                0.25            0.666667           0.0138889
       81            0.666667            0.333333            0.666667           0.0138889
       82            0.583333            0.416667            0.666667           0.0138889
       83                 0.5                 0.5            0.666667          0.00694444
       84            0.916667            0.916667            0.666667           0.0138889
       85            0.916667            0.833333            0.666667           0.0277778
       86            0.916667                0.75            0.666667           0.0277778
       87            0.916667            0.666667            0.666667           0.0277778
       88            0.916667            0.583333            0.666667           0.0277778
       89            0.833333            0.833333            0.666667           0.0138889
       90            0.833333                0.75            0.666667           0.0277778
       91            0.833333            0.666667            0.666667           0.0277778
       92            0.833333            0.583333            0.666667           0.0138889
       93                0.75                0.75            0.666667           0.0138889
       94                0.75            0.666667            0.666667           0.0277778
       95            0.666667            0.666667            0.666667          0.00462963
       96                   0                   0            0.583333          0.00231481
       97            0.916667           0.0833333            0.583333           0.0138889
       98            0.833333            0.166667            0.583333           0.0138889
       99                0.75                0.25            0.583333           0.0138889
      100            0.666667            0.333333            0.583333           0.0138889
      101            0.583333            0.416667            0.583333           0.0138889
      102                 0.5                 0.5            0.583333          0.00694444
      103            0.916667            0.916667            0.583333           0.0138889
      104            0.916667            0.833333            0.583333           0.0277778
      105            0.916667                0.75            0.583333           0.0277778
      106            0.916667            0.666667            0.583333           0.0277778
      107            0.916667            0.583333            0.583333           0.0277778
      108            0.833333            0.833333            0.583333           0.0138889
      109            0.833333                0.75            0.583333           0.0277778
      110            0.833333            0.666667            0.583333           0.0277778
      111            0.833333            0.583333            0.583333           0.0138889
      112                0.75                0.75            0.583333           0.0138889
      113                0.75            0.666667            0.583333           0.0277778
      114            0.666667            0.666667            0.583333          0.00462963
      115                   0                   0                 0.5          0.00115741
      116            0.916667           0.0833333                 0.5          0.00694444
      117            0.833333            0.166667                 0.5          0.00694444
      118                0.75                0.25                 0.5          0.00694444
      119            0.666667            0.333333                 0.5          0.00694444
      120            0.583333            0.416667                 0.5          0.00694444
      121                 0.5                 0.5                 0.5          0.00347222
      122            0.916667            0.916667                 0.5          0.00694444
      123            0.916667            0.833333                 0.5           0.0138889
      124            0.916667                0.75                 0.5           0.0138889
      125            0.916667            0.666667                 0.5           0.0138889
      126            0.916667            0.583333                 0.5           0.0138889
      127            0.833333            0.833333                 0.5          0.00694444
      128            0.833333                0.75                 0.5           0.0138889
      129            0.833333            0.666667                 0.5           0.0138889
      130            0.833333            0.583333                 0.5          0.00694444
      131                0.75                0.75                 0.5          0.00694444
      132                0.75            0.666667                 0.5           0.0138889
      133            0.666667            0.666667                 0.5          0.00231481
 DONE : INIT K-POINTS Time : 0.0865982 (SEC)





 >>>>>>>>>>>>>>>>>>>>>>>>>>>>>>>>>>>>>>>>>>>>>>>>>>>>>>>>>>>>>>>>>>>>>>
 |                                                                    |
 | Setup plane waves:                                                 |
 | Use the energy cutoff and the lattice vectors to generate the      |
 | dimensions of FFT grid. The number of FFT grid on each processor   |
 | is 'nrxx'. The number of plane wave basis in reciprocal space is   |
 | different for charege/potential and wave functions. We also set    |
 | the 'sticks' for the parallel of FFT.                              |
 |                                                                    |
 <<<<<<<<<<<<<<<<<<<<<<<<<<<<<<<<<<<<<<<<<<<<<<<<<<<<<<<<<<<<<<<<<<<<<<





 SETUP THE PLANE WAVE BASIS
     energy cutoff for wavefunc (unit:Ry) = 60
            [fft grid for wave functions] = 30, 30, 45
          [fft grid for charge/potential] = 30, 30, 45
                      [fft grid division] = 1, 1, 1
      [big fft grid for charge/potential] = 30, 30, 45
                                     nbxx = 40500
                                     nrxx = 40500

 SETUP PLANE WAVES FOR CHARGE/POTENTIAL
                    number of plane waves = 13369
                         number of sticks = 463

 SETUP PLANE WAVES FOR WAVE FUNCTIONS
                    number of plane waves = 3669
                         number of sticks = 199

 PARALLEL PW FOR CHARGE/POTENTIAL
     PROC   COLUMNS(POT)             PW
        1            463          13369
 --------------- sum -------------------
        1            463          13369

 PARALLEL PW FOR WAVE FUNCTIONS
     PROC     COLUMNS(W)             PW
        1            199           3669
 --------------- sum -------------------
        1            199           3669

 SETUP COORDINATES OF PLANE WAVES
              number of total plane waves = 13369

 SETUP COORDINATES OF PLANE WAVES
                            number of |g| = 714
                                  max |g| = 171.769
                                  min |g| = 0
 DONE : INIT PLANEWAVE Time : 0.146398 (SEC)

                                     npwx = 1713

 SETUP NONLOCAL PSEUDOPOTENTIALS IN PLANE WAVE BASIS
 Al non-local projectors:
      TOTAL NUMBER OF NONLOCAL PROJECTORS = 0

 nhm = 0, not allocate some matrix. DONE : LOCAL POTENTIAL Time : 0.259838 (SEC)


 Init Non-Local PseudoPotential table : 
 Init Non-Local-Pseudopotential done.
 DONE : NON-LOCAL POTENTIAL Time : 0.259892 (SEC)

                                start_pot = atomic
 DONE : INIT POTENTIAL Time : 0.348345 (SEC)


 Make real space PAO into reciprocal space.
       max mesh points in Pseudopotential = 1601
     dq(describe PAO in reciprocal space) = 0.01
                                    max q = 934

 number of pseudo atomic orbitals for Al is 0
 DONE : INIT BASIS Time : 4.5443 (SEC)

 -------------------------------------------
 -------------------------------------------

 PW ALGORITHM --------------- ION=   1  ELEC=   1--------------------------------
  K-point    CG iter num      Time(Sec)
        1       7.266667       0.231551
        2       8.266667       0.259954
        3       6.666667       0.216421
        4       7.000000       0.229465
        5       7.533333       0.249673
        6       7.333333       0.245892
        7       6.333333       0.214162
        8       7.000000       0.236806
        9       6.933333       0.227927
       10       6.866667       0.223315
       11       7.200000       0.238758
       12       7.333333       0.242360
       13       6.400000       0.217859
       14       7.066667       0.235356
       15       7.266667       0.241169
       16       6.733333       0.226422
       17       6.666667       0.225333
       18       7.733333       0.255584
       19       6.133333       0.210271
       20       8.200000       0.270317
       21       8.600000       0.282435
       22       8.200000       0.270747
       23       7.466667       0.247440
       24       7.266667       0.240784
       25       7.533333       0.250014
       26       7.333333       0.244149
       27       7.533333       0.249784
       28       8.200000       0.270014
       29       8.066667       0.265786
       30       7.200000       0.240453
       31       7.600000       0.251725
       32       7.200000       0.240770
       33       7.600000       0.252492
       34       7.866667       0.259264
       35       7.266667       0.241430
       36       7.333333       0.244315
       37       7.200000       0.240047
       38       6.666667       0.225749
       39       8.266667       0.272913
       40       8.066667       0.265900
       41       7.666667       0.254742
       42       7.933333       0.260677
       43       7.400000       0.246918
       44       7.466667       0.246385
       45       6.933333       0.232668
       46       8.466667       0.277781
       47       7.600000       0.252854
       48       8.000000       0.265853
       49       8.533333       0.279905
       50       7.000000       0.236096
       51       7.266667       0.242507
       52       7.333333       0.244135
       53       7.800000       0.257245
       54       7.466667       0.247897
       55       6.933333       0.232366
       56       7.666667       0.254233
       57       6.933333       0.232821
       58       7.333333       0.247157
       59       7.800000       0.261256
       60       8.533333       0.282194
       61       8.200000       0.270878
       62       7.866667       0.261302
       63       6.800000       0.228623
       64       7.533333       0.250427
       65       7.466667       0.248006
       66       7.600000       0.252499
       67       7.600000       0.254004
       68       7.933333       0.255065
       69       7.333333       0.240762
       70       7.600000       0.253104
       71       8.066667       0.265401
       72       7.666667       0.254520
       73       7.466667       0.249603
       74       7.666667       0.253180
       75       8.400000       0.276100
       76       6.466667       0.219610
       77       7.533333       0.251784
       78       7.800000       0.258931
       79       8.600000       0.282851
       80       6.800000       0.229858
       81       8.400000       0.276568
       82       7.533333       0.250182
       83       7.533333       0.251000
       84       7.533333       0.251651
       85       7.666667       0.255727
       86       8.066667       0.266881
       87       7.466667       0.249065
       88       7.400000       0.246401
       89       7.466667       0.251018
       90       7.466667       0.249851
       91       7.466667       0.248361
       92       7.933333       0.263406
       93       7.466667       0.251078
       94       7.466667       0.249440
       95       6.600000       0.223813
       96       6.666667       0.226537
       97       7.866667       0.260709
       98       7.400000       0.248293
       99       7.066667       0.237193
      100       7.133333       0.239175
      101       6.666667       0.226806
      102       6.733333       0.228967
      103       6.800000       0.215259
      104       8.200000       0.252663
      105       7.666667       0.236872
      106       8.066667       0.247762
      107       7.733333       0.237609
      108       7.133333       0.222147
      109       6.866667       0.213608
      110       7.866667       0.240684
      111       6.733333       0.225317
      112       6.933333       0.228941
      113       7.600000       0.248960
      114       6.466667       0.218650
      115       6.266667       0.213738
      116       7.266667       0.242291
      117       7.200000       0.237518
      118       7.066667       0.232418
      119       6.933333       0.229104
      120       7.066667       0.229540
      121       6.533333       0.214739
      122       6.600000       0.214651
      123       6.733333       0.219321
      124       7.000000       0.227164
      125       7.533333       0.247458
      126       6.466667       0.215512
      127       6.933333       0.226788
      128       7.466667       0.237068
      129       7.333333       0.232821
      130       6.466667       0.188550
      131       6.000000       0.175054
      132       6.933333       0.199672
      133       5.400000       0.161194

 Density error is 0.165933493153
                          Error Threshold = 0.010000000000

       Energy                       Rydberg                            eV
   E_KohnSham               -8.491378036758             -115.531125171966
     E_Harris               -8.523185077202             -115.963882158523
      E_Fermi               +0.598938695240               +8.148979007950

 PW ALGORITHM --------------- ION=   1  ELEC=   2--------------------------------
  K-point    CG iter num      Time(Sec)
        1       2.733333       0.104581
        2       2.066667       0.084851
        3       2.066667       0.085131
        4       2.066667       0.084868
        5       2.066667       0.085687
        6       2.066667       0.084349
        7       2.333333       0.093116
        8       2.133333       0.087892
        9       2.066667       0.086021
       10       2.000000       0.083456
       11       2.000000       0.083766
       12       2.333333       0.091712
       13       2.400000       0.092356
       14       2.133333       0.084423
       15       2.066667       0.082064
       16       2.066667       0.082602
       17       2.066667       0.082524
       18       2.466667       0.094038
       19       2.400000       0.092180
       20       2.266667       0.088805
       21       2.733333       0.101343
       22       2.000000       0.080999
       23       2.066667       0.082258
       24       2.200000       0.086560
       25       2.000000       0.081050
       26       2.000000       0.080485
       27       2.400000       0.092110
       28       2.133333       0.084636
       29       2.066667       0.082816
       30       2.333333       0.090577
       31       2.133333       0.084418
       32       2.200000       0.085863
       33       2.000000       0.081459
       34       2.600000       0.097592
       35       2.066667       0.082246
       36       2.266667       0.088065
       37       2.600000       0.097611
       38       2.200000       0.085736
       39       2.133333       0.082950
       40       2.933333       0.104560
       41       2.800000       0.101312
       42       2.066667       0.081034
       43       2.333333       0.088299
       44       2.133333       0.082536
       45       2.000000       0.078378
       46       2.200000       0.084169
       47       2.133333       0.082387
       48       2.066667       0.080856
       49       2.000000       0.079204
       50       2.066667       0.080561
       51       2.400000       0.089915
       52       2.466667       0.091923
       53       2.466667       0.091969
       54       2.066667       0.080946
       55       2.133333       0.083645
       56       2.000000       0.079269
       57       2.066667       0.081078
       58       2.533333       0.094635
       59       2.000000       0.079655
       60       2.066667       0.081120
       61       2.066667       0.080876
       62       2.200000       0.085052
       63       2.000000       0.079351
       64       2.400000       0.089834
       65       2.000000       0.078912
       66       2.200000       0.085173
       67       2.066667       0.081481
       68       2.133333       0.083521
       69       2.066667       0.082379
       70       2.066667       0.081813
       71       2.133333       0.083537
       72       2.000000       0.081906
       73       2.000000       0.082028
       74       2.266667       0.089054
       75       2.066667       0.083655
       76       2.266667       0.089347
       77       2.066667       0.083059
       78       2.400000       0.091847
       79       2.200000       0.087379
       80       2.066667       0.083205
       81       2.133333       0.087132
       82       2.200000       0.088379
       83       2.000000       0.083644
       84       2.400000       0.095884
       85       2.000000       0.084917
       86       2.000000       0.083957
       87       2.333333       0.095198
       88       2.000000       0.084981
       89       2.000000       0.084116
       90       2.266667       0.092042
       91       2.000000       0.083852
       92       2.333333       0.093471
       93       2.000000       0.083841
       94       2.000000       0.085448
       95       2.200000       0.088913
       96       2.000000       0.083645
       97       2.000000       0.083217
       98       2.200000       0.089046
       99       2.000000       0.084407
      100       2.600000       0.103718
      101       2.200000       0.089243
      102       2.000000       0.083802
      103       2.333333       0.093596
      104       2.066667       0.085003
      105       2.066667       0.086344
      106       2.200000       0.088550
      107       2.133333       0.086347
      108       2.066667       0.084858
      109       2.400000       0.094729
      110       2.333333       0.092903
      111       2.000000       0.082615
      112       2.266667       0.090990
      113       2.133333       0.087387
      114       2.000000       0.080448
      115       2.000000       0.077949
      116       2.066667       0.079759
      117       2.200000       0.083743
      118       2.400000       0.088721
      119       2.133333       0.081147
      120       2.000000       0.078802
      121       2.000000       0.077470
      122       2.200000       0.083232
      123       2.200000       0.083126
      124       2.333333       0.087635
      125       2.000000       0.077145
      126       2.000000       0.077571
      127       2.333333       0.087113
      128       2.000000       0.078771
      129       2.000000       0.078232
      130       2.266667       0.085765
      131       2.266667       0.085990
      132       2.066667       0.080565
      133       2.533333       0.092493

 Density error is 0.012229727577
                          Error Threshold = 0.002765558219

       Energy                       Rydberg                            eV
   E_KohnSham               -8.513541163867             -115.832669986144
     E_Harris               -8.504117389538             -115.704452958608
      E_Fermi               +0.593264319430               +8.071775164335

 PW ALGORITHM --------------- ION=   1  ELEC=   3--------------------------------
  K-point    CG iter num      Time(Sec)
        1       6.133333       0.212291
        2       4.266667       0.150959
        3       3.333333       0.123839
        4       2.933333       0.111307
        5       2.800000       0.108450
        6       2.866667       0.111736
        7       2.533333       0.103821
        8       4.133333       0.146553
        9       3.000000       0.114199
       10       2.666667       0.102594
       11       2.933333       0.110336
       12       2.800000       0.107475
       13       3.733333       0.136303
       14       2.666667       0.103649
       15       2.733333       0.105825
       16       4.333333       0.153128
       17       4.400000       0.153660
       18       3.666667       0.132561
       19       4.066667       0.143800
       20       3.800000       0.136933
       21       4.000000       0.145053
       22       3.466667       0.129999
       23       3.133333       0.117607
       24       3.133333       0.115050
       25       2.733333       0.103059
       26       3.066667       0.112858
       27       4.200000       0.146978
       28       3.200000       0.120628
       29       2.800000       0.107634
       30       2.800000       0.108355
       31       2.866667       0.110358
       32       2.933333       0.111882
       33       2.733333       0.105704
       34       2.866667       0.108842
       35       3.066667       0.119175
       36       3.466667       0.128364
       37       3.666667       0.133374
       38       2.800000       0.108429
       39       3.600000       0.131326
       40       3.466667       0.126741
       41       3.133333       0.117794
       42       3.200000       0.119427
       43       2.800000       0.107009
       44       2.733333       0.105172
       45       2.866667       0.109741
       46       3.533333       0.126113
       47       3.600000       0.127410
       48       2.866667       0.108541
       49       2.800000       0.107453
       50       2.933333       0.109453
       51       2.800000       0.110780
       52       3.000000       0.113512
       53       2.933333       0.107378
       54       2.666667       0.099204
       55       3.266667       0.116454
       56       2.866667       0.105625
       57       2.733333       0.101801
       58       3.200000       0.114989
       59       3.600000       0.124599
       60       4.000000       0.136799
       61       2.866667       0.106008
       62       3.066667       0.115652
       63       3.733333       0.134739
       64       2.666667       0.100613
       65       3.733333       0.131927
       66       3.133333       0.124052
       67       3.400000       0.124085
       68       2.866667       0.109559
       69       2.666667       0.103867
       70       3.400000       0.130309
       71       3.000000       0.120819
       72       2.933333       0.112024
       73       2.800000       0.107698
       74       2.933333       0.112315
       75       2.866667       0.109764
       76       2.733333       0.108795
       77       3.533333       0.134354
       78       3.333333       0.123955
       79       4.200000       0.148297
       80       3.333333       0.122773
       81       2.733333       0.104877
       82       2.600000       0.100896
       83       2.400000       0.096276
       84       3.400000       0.123881
       85       3.066667       0.114225
       86       3.066667       0.115576
       87       3.000000       0.113353
       88       2.666667       0.102916
       89       2.666667       0.102866
       90       3.200000       0.118318
       91       2.666667       0.103229
       92       2.733333       0.105275
       93       3.000000       0.113225
       94       2.933333       0.110786
       95       2.933333       0.111487
       96       3.533333       0.130002
       97       3.466667       0.126564
       98       3.200000       0.119673
       99       3.666667       0.133913
      100       3.000000       0.114601
      101       3.000000       0.113452
      102       2.866667       0.110718
      103       3.733333       0.135192
      104       3.133333       0.116331
      105       3.333333       0.123126
      106       2.800000       0.106781
      107       2.600000       0.102363
      108       2.933333       0.111414
      109       2.600000       0.101240
      110       2.600000       0.101544
      111       2.600000       0.102022
      112       2.933333       0.110833
      113       3.066667       0.114750
      114       3.600000       0.131040
      115       3.200000       0.118502
      116       3.133333       0.117550
      117       3.333333       0.122419
      118       3.066667       0.110520
      119       3.000000       0.105402
      120       2.466667       0.090852
      121       2.533333       0.092450
      122       3.466667       0.118130
      123       3.000000       0.105293
      124       2.733333       0.097467
      125       2.466667       0.091247
      126       2.466667       0.090089
      127       2.600000       0.093448
      128       2.533333       0.093087
      129       2.466667       0.091563
      130       2.600000       0.095425
      131       2.400000       0.089734
      132       2.800000       0.101385
      133       2.200000       0.083672

 Density error is 0.000059033585
                          Error Threshold = 0.000203828793

       Energy                       Rydberg                            eV
   E_KohnSham               -8.514275757583             -115.842664646391
     E_Harris               -8.514270840333             -115.842597743780
      E_Fermi               +0.592334362299               +8.059122448469

 PW ALGORITHM --------------- ION=   1  ELEC=   4--------------------------------
  K-point    CG iter num      Time(Sec)
        1       6.466667       0.216397
        2       5.600000       0.190794
        3       4.933333       0.174133
        4       4.133333       0.147796
        5       4.266667       0.151387
        6       4.466667       0.157443
        7       5.000000       0.178396
        8       5.000000       0.183310
        9       4.200000       0.149251
       10       3.933333       0.140699
       11       4.133333       0.147046
       12       4.533333       0.159078
       13       4.733333       0.164989
       14       4.266667       0.151154
       15       4.866667       0.168809
[...]
 [spin1_state]        7      16.627645       0.000000
 [spin1_state]        8      18.441686       0.000000
 [spin1_state]        9      20.132968       0.000000
 [spin1_state]       10      21.235340       0.000000
 [spin1_state]       11      22.598161       0.000000
 [spin1_state]       12      24.488461       0.000000
 [spin1_state]       13      27.183721       0.000000
 [spin1_state]       14      28.195624       0.000000
 [spin1_state]       15      31.355406       0.000000

 114/133 kpoint (Cartesian) = 0.666667 1.154701 0.355491 (1674 pws)
 [spin1_state]        1       5.459404       0.004630
 [spin1_state]        2       5.459590       0.004630
 [spin1_state]        3       6.049160       0.004630
 [spin1_state]        4       6.997625       0.004630
 [spin1_state]        5       6.997761       0.004630
 [spin1_state]        6       7.199952       0.004630
 [spin1_state]        7      18.149152       0.000000
 [spin1_state]        8      18.149155       0.000000
 [spin1_state]        9      19.127660       0.000000
 [spin1_state]       10      22.287809       0.000000
 [spin1_state]       11      22.287822       0.000000
 [spin1_state]       12      22.615107       0.000000
 [spin1_state]       13      30.449118       0.000000
 [spin1_state]       14      30.961211       0.000000
 [spin1_state]       15      30.961468       0.000000

 115/133 kpoint (Cartesian) = 0.000000 0.000000 0.304706 (1702 pws)
 [spin1_state]        1      -2.053266       0.001157
 [spin1_state]        2      -2.053006       0.001157
 [spin1_state]        3      11.858611       0.000000
 [spin1_state]        4      11.858614       0.000000
 [spin1_state]        5      21.681403       0.000000
 [spin1_state]        6      21.681402       0.000000
 [spin1_state]        7      21.681679       0.000000
 [spin1_state]        8      21.681679       0.000000
 [spin1_state]        9      22.769781       0.000000
 [spin1_state]       10      22.769782       0.000000
 [spin1_state]       11      22.770074       0.000000
 [spin1_state]       12      22.770074       0.000000
 [spin1_state]       13      24.012628       0.000000
 [spin1_state]       14      24.012879       0.000000
 [spin1_state]       15      26.025677       0.000000

 116/133 kpoint (Cartesian) = 0.916667 0.625463 0.304706 (1696 pws)
 [spin1_state]        1      -1.879156       0.006944
 [spin1_state]        2      -1.878897       0.006944
 [spin1_state]        3      12.021262       0.000000
 [spin1_state]        4      12.021264       0.000000
 [spin1_state]        5      18.857551       0.000000
 [spin1_state]        6      18.857818       0.000000
 [spin1_state]        7      20.228445       0.000000
 [spin1_state]        8      20.228727       0.000000
 [spin1_state]        9      21.865080       0.000000
 [spin1_state]       10      21.865340       0.000000
 [spin1_state]       11      24.570817       0.000000
 [spin1_state]       12      24.571102       0.000000
 [spin1_state]       13      26.358680       0.000000
 [spin1_state]       14      26.358904       0.000000
 [spin1_state]       15      27.990060       0.000000

 117/133 kpoint (Cartesian) = 0.833333 0.673575 0.304706 (1684 pws)
 [spin1_state]        1      -1.357016       0.006944
 [spin1_state]        2      -1.356756       0.006944
 [spin1_state]        3      12.482758       0.000000
 [spin1_state]        4      12.482764       0.000000
 [spin1_state]        5      15.389775       0.000000
 [spin1_state]        6      15.390031       0.000000
 [spin1_state]        7      18.684323       0.000000
 [spin1_state]        8      18.684606       0.000000
 [spin1_state]        9      20.512326       0.000000
 [spin1_state]       10      20.512569       0.000000
 [spin1_state]       11      27.155593       0.000000
 [spin1_state]       12      27.155876       0.000000
 [spin1_state]       13      28.358429       0.000000
 [spin1_state]       14      28.358573       0.000000
 [spin1_state]       15      29.927118       0.000000

 118/133 kpoint (Cartesian) = 0.750000 0.721688 0.304706 (1686 pws)
 [spin1_state]        1      -0.487541       0.006944
 [spin1_state]        2      -0.487281       0.006944
 [spin1_state]        3      11.894984       0.000000
 [spin1_state]        4      11.895225       0.000000
 [spin1_state]        5      13.561209       0.000000
 [spin1_state]        6      13.561230       0.000000
 [spin1_state]        7      17.467708       0.000000
 [spin1_state]        8      17.467992       0.000000
 [spin1_state]        9      19.369509       0.000000
 [spin1_state]       10      19.369742       0.000000
 [spin1_state]       11      26.094823       0.000000
 [spin1_state]       12      26.094827       0.000000
 [spin1_state]       13      30.053836       0.000000
 [spin1_state]       14      30.054099       0.000000
 [spin1_state]       15      31.533611       0.000000

 119/133 kpoint (Cartesian) = 0.666667 0.769800 0.304706 (1680 pws)
 [spin1_state]        1       0.727330       0.006944
 [spin1_state]        2       0.727591       0.006944
 [spin1_state]        3       9.073597       0.000000
 [spin1_state]        4       9.073858       0.000000
 [spin1_state]        5      14.600410       0.000000
 [spin1_state]        6      14.600417       0.000000
 [spin1_state]        7      16.595652       0.000000
 [spin1_state]        8      16.595936       0.000000
 [spin1_state]        9      18.524405       0.000000
 [spin1_state]       10      18.524627       0.000000
 [spin1_state]       11      23.328624       0.000000
 [spin1_state]       12      23.328633       0.000000
 [spin1_state]       13      30.671823       0.000000
 [spin1_state]       14      30.671854       0.000000
 [spin1_state]       15      32.329805       0.000000

 120/133 kpoint (Cartesian) = 0.583333 0.817913 0.304706 (1670 pws)
 [spin1_state]        1       2.279524       0.006944
 [spin1_state]        2       2.279785       0.006944
 [spin1_state]        3       6.503240       0.006944
 [spin1_state]        4       6.503500       0.006944
 [spin1_state]        5      15.973849       0.000000
 [spin1_state]        6      15.973878       0.000000
 [spin1_state]        7      16.071699       0.000000
 [spin1_state]        8      16.071983       0.000000
 [spin1_state]        9      17.968396       0.000000
 [spin1_state]       10      17.968583       0.000000
 [spin1_state]       11      20.988665       0.000000
 [spin1_state]       12      20.988665       0.000000
 [spin1_state]       13      30.179595       0.000000
 [spin1_state]       14      30.179631       0.000000
 [spin1_state]       15      32.101942       0.000000

 121/133 kpoint (Cartesian) = 0.500000 0.866025 0.304706 (1660 pws)
 [spin1_state]        1       3.871137       0.003472
 [spin1_state]        2       3.871404       0.003472
 [spin1_state]        3       4.569925       0.003472
 [spin1_state]        4       4.570180       0.003472
 [spin1_state]        5      15.896956       0.000000
 [spin1_state]        6      15.897240       0.000000
 [spin1_state]        7      17.061897       0.000000
 [spin1_state]        8      17.062047       0.000000
 [spin1_state]        9      17.575278       0.000000
 [spin1_state]       10      17.575313       0.000000
 [spin1_state]       11      19.785231       0.000000
 [spin1_state]       12      19.785262       0.000000
 [spin1_state]       13      30.009954       0.000000
 [spin1_state]       14      30.009989       0.000000
 [spin1_state]       15      31.984715       0.000000

 122/133 kpoint (Cartesian) = 0.916667 1.587713 0.304706 (1690 pws)
 [spin1_state]        1      -1.531028       0.006944
 [spin1_state]        2      -1.530768       0.006944
 [spin1_state]        3      12.338087       0.000000
 [spin1_state]        4      12.338088       0.000000
 [spin1_state]        5      16.958837       0.000000
 [spin1_state]        6      16.959101       0.000000
 [spin1_state]        7      17.488641       0.000000
 [spin1_state]        8      17.488908       0.000000
 [spin1_state]        9      23.130840       0.000000
 [spin1_state]       10      23.131121       0.000000
 [spin1_state]       11      24.152093       0.000000
 [spin1_state]       12      24.152333       0.000000
 [spin1_state]       13      29.473485       0.000000
 [spin1_state]       14      29.473688       0.000000
 [spin1_state]       15      30.169282       0.000000

 123/133 kpoint (Cartesian) = 0.916667 1.491488 0.304706 (1686 pws)
 [spin1_state]        1      -0.835184       0.013889
 [spin1_state]        2      -0.834924       0.013889
 [spin1_state]        3      12.814736       0.000000
 [spin1_state]        4      12.814792       0.000000
 [spin1_state]        5      13.956825       0.000000
 [spin1_state]        6      13.957041       0.000000
 [spin1_state]        7      15.945413       0.000000
 [spin1_state]        8      15.945669       0.000000
 [spin1_state]        9      22.265903       0.000000
 [spin1_state]       10      22.266161       0.000000
 [spin1_state]       11      26.232351       0.000000
 [spin1_state]       12      26.232580       0.000000
 [spin1_state]       13      27.954887       0.000000
 [spin1_state]       14      27.954905       0.000000
 [spin1_state]       15      30.020117       0.000000

 124/133 kpoint (Cartesian) = 0.916667 1.395263 0.304706 (1678 pws)
 [spin1_state]        1       0.207215       0.013889
 [spin1_state]        2       0.207476       0.013889
 [spin1_state]        3      10.599975       0.000000
 [spin1_state]        4      10.600234       0.000000
 [spin1_state]        5      13.929245       0.000000
 [spin1_state]        6      13.929315       0.000000
 [spin1_state]        7      15.073965       0.000000
 [spin1_state]        8      15.074161       0.000000
 [spin1_state]        9      21.244759       0.000000
 [spin1_state]       10      21.245008       0.000000
 [spin1_state]       11      24.786110       0.000000
 [spin1_state]       12      24.786111       0.000000
 [spin1_state]       13      28.684060       0.000000
 [spin1_state]       14      28.684118       0.000000
 [spin1_state]       15      29.944886       0.000000

 125/133 kpoint (Cartesian) = 0.916667 1.299038 0.304706 (1668 pws)
 [spin1_state]        1       1.592531       0.013889
 [spin1_state]        2       1.592792       0.013889
 [spin1_state]        3       7.873664       0.013823
 [spin1_state]        4       7.873925       0.013822
 [spin1_state]        5      13.946720       0.000000
 [spin1_state]        6      13.946967       0.000000
 [spin1_state]        7      15.658853       0.000000
 [spin1_state]        8      15.658870       0.000000
 [spin1_state]        9      20.402607       0.000000
 [spin1_state]       10      20.402825       0.000000
 [spin1_state]       11      22.330911       0.000000
 [spin1_state]       12      22.330930       0.000000
 [spin1_state]       13      28.257810       0.000000
 [spin1_state]       14      28.257822       0.000000
 [spin1_state]       15      32.976064       0.000000

 126/133 kpoint (Cartesian) = 0.916667 1.202813 0.304706 (1678 pws)
 [spin1_state]        1       3.294115       0.013889
 [spin1_state]        2       3.294377       0.013889
 [spin1_state]        3       5.490896       0.013889
 [spin1_state]        4       5.491156       0.013889
 [spin1_state]        5      13.671146       0.000000
 [spin1_state]        6      13.671409       0.000000
 [spin1_state]        7      17.126809       0.000000
 [spin1_state]        8      17.126811       0.000000
 [spin1_state]        9      19.226040       0.000000
 [spin1_state]       10      19.226134       0.000000
 [spin1_state]       11      20.956735       0.000000
 [spin1_state]       12      20.956875       0.000000
 [spin1_state]       13      27.941858       0.000000
 [spin1_state]       14      27.941873       0.000000
 [spin1_state]       15      34.321962       0.000000

 127/133 kpoint (Cartesian) = 0.833333 1.443376 0.304706 (1680 pws)
 [spin1_state]        1       0.033713       0.006944
 [spin1_state]        2       0.033973       0.006944
 [spin1_state]        3      12.296423       0.000000
 [spin1_state]        4      12.296689       0.000000
 [spin1_state]        5      12.509742       0.000000
 [spin1_state]        6      12.509959       0.000000
 [spin1_state]        7      14.343644       0.000000
 [spin1_state]        8      14.343683       0.000000
 [spin1_state]        9      24.623095       0.000000
 [spin1_state]       10      24.623348       0.000000
 [spin1_state]       11      25.121049       0.000000
 [spin1_state]       12      25.121231       0.000000
 [spin1_state]       13      26.524224       0.000000
 [spin1_state]       14      26.524247       0.000000
 [spin1_state]       15      27.781255       0.000000

 128/133 kpoint (Cartesian) = 0.833333 1.347151 0.304706 (1672 pws)
 [spin1_state]        1       1.247610       0.013889
 [spin1_state]        2       1.247870       0.013889
 [spin1_state]        3       9.571071       0.000000
 [spin1_state]        4       9.571333       0.000000
 [spin1_state]        5      11.664329       0.000000
 [spin1_state]        6      11.664587       0.000000
 [spin1_state]        7      15.310758       0.000000
 [spin1_state]        8      15.310759       0.000000
 [spin1_state]        9      23.251775       0.000000
 [spin1_state]       10      23.251840       0.000000
 [spin1_state]       11      24.539855       0.000000
 [spin1_state]       12      24.540020       0.000000
 [spin1_state]       13      26.049507       0.000000
 [spin1_state]       14      26.049542       0.000000
 [spin1_state]       15      28.939026       0.000000

 129/133 kpoint (Cartesian) = 0.833333 1.250926 0.304706 (1672 pws)
 [spin1_state]        1       2.798146       0.013889
 [spin1_state]        2       2.798408       0.013889
 [spin1_state]        3       7.014012       0.013889
 [spin1_state]        4       7.014273       0.013889
 [spin1_state]        5      11.162038       0.000000
 [spin1_state]        6      11.162299       0.000000
 [spin1_state]        7      16.744846       0.000000
 [spin1_state]        8      16.744850       0.000000
 [spin1_state]        9      21.019151       0.000000
 [spin1_state]       10      21.019160       0.000000
 [spin1_state]       11      23.877048       0.000000
 [spin1_state]       12      23.877255       0.000000
 [spin1_state]       13      25.626764       0.000000
 [spin1_state]       14      25.626785       0.000000
 [spin1_state]       15      32.325497       0.000000

 130/133 kpoint (Cartesian) = 0.833333 1.154701 0.304706 (1686 pws)
 [spin1_state]        1       4.386507       0.006944
 [spin1_state]        2       4.386774       0.006944
 [spin1_state]        3       5.086592       0.006944
 [spin1_state]        4       5.086847       0.006944
 [spin1_state]        5      10.992867       0.000000
 [spin1_state]        6      10.993129       0.000000
 [spin1_state]        7      17.989172       0.000000
 [spin1_state]        8      17.989176       0.000000
 [spin1_state]        9      19.469806       0.000000
 [spin1_state]       10      19.469808       0.000000
 [spin1_state]       11      23.681415       0.000000
 [spin1_state]       12      23.681626       0.000000
 [spin1_state]       13      25.467689       0.000000
 [spin1_state]       14      25.467708       0.000000
 [spin1_state]       15      35.707444       0.000000

 131/133 kpoint (Cartesian) = 0.750000 1.299038 0.304706 (1670 pws)
 [spin1_state]        1       2.629183       0.006944
 [spin1_state]        2       2.629444       0.006944
 [spin1_state]        3       8.651483       0.000000
 [spin1_state]        4       8.651749       0.000000
 [spin1_state]        5       9.190795       0.000000
 [spin1_state]        6       9.191051       0.000000
 [spin1_state]        7      16.599742       0.000000
 [spin1_state]        8      16.599747       0.000000
 [spin1_state]        9      22.412206       0.000000
 [spin1_state]       10      22.412210       0.000000
 [spin1_state]       11      23.599836       0.000000
 [spin1_state]       12      23.599836       0.000000
 [spin1_state]       13      27.361493       0.000000
 [spin1_state]       14      27.361775       0.000000
 [spin1_state]       15      28.805220       0.000000

 132/133 kpoint (Cartesian) = 0.750000 1.202813 0.304706 (1676 pws)
 [spin1_state]        1       4.322087       0.013889
 [spin1_state]        2       4.322350       0.013889
 [spin1_state]        3       6.505663       0.013889
 [spin1_state]        4       6.505924       0.013889
 [spin1_state]        5       8.623131       0.000000
 [spin1_state]        6       8.623390       0.000000
 [spin1_state]        7      18.109266       0.000000
 [spin1_state]        8      18.109270       0.000000
 [spin1_state]        9      20.656447       0.000000
 [spin1_state]       10      20.656458       0.000000
 [spin1_state]       11      22.875616       0.000000
 [spin1_state]       12      22.875619       0.000000
 [spin1_state]       13      27.628715       0.000000
 [spin1_state]       14      27.628972       0.000000
 [spin1_state]       15      31.832576       0.000000

 133/133 kpoint (Cartesian) = 0.666667 1.154701 0.304706 (1686 pws)
 [spin1_state]        1       5.674566       0.002315
 [spin1_state]        2       5.674834       0.002315
 [spin1_state]        3       6.577725       0.002315
 [spin1_state]        4       6.578021       0.002315
 [spin1_state]        5       6.687320       0.002315
 [spin1_state]        6       6.687539       0.002315
 [spin1_state]        7      19.012836       0.000000
 [spin1_state]        8      19.012838       0.000000
 [spin1_state]        9      20.821456       0.000000
 [spin1_state]       10      20.821498       0.000000
 [spin1_state]       11      21.337506       0.000000
 [spin1_state]       12      21.337523       0.000000
 [spin1_state]       13      30.980412       0.000000
 [spin1_state]       14      30.980679       0.000000
 [spin1_state]       15      31.063414       0.000000



 --------------------------------------------
 !FINAL_ETOT_IS -115.8434060216855102 eV
 --------------------------------------------






  |CLASS_NAME---------|NAME---------------|TIME(Sec)-----|CALLS----|AVG------|PER%-------
  B              Run_pw     plane_wave_line        124.256         1    124.26    100.00%
  C             Cell_PW        opt_cells_pw         124.10         1    124.10     99.87%
  X                 FFT               FFT3D          94.60    129678      0.00     76.13%
  C            wavefunc             wfcinit           4.20         1      4.20      3.38%
  G           Hamilt_PW      diagH_subspace          21.19       798      0.03     17.05%
  H           Hamilt_PW               h_psi         101.40     47668      0.00     81.60%
  H           Hamilt_PW                vloc         100.86     47668      0.00     81.17%
  C                Ions         opt_ions_pw         119.70         1    119.70     96.33%
  D           Electrons     self_consistent         119.70         1    119.70     96.33%
  E           Electrons             c_bands          68.93         3     22.98     55.47%
  F              Hamilt            diagH_pw         106.06       798      0.13     85.35%
  G            Diago_CG                diag          88.32       798      0.11     71.08%
  E           electrons             c_bands          52.24         3     17.41     42.04%
 ----------------------------------------------------------------------------------------

 CLASS_NAME---------|NAME---------------|MEMORY(MB)--------
                                         63.9424
             wavefunc                 evc        52.1459
         Charge_Pulay                Rrho         2.4719
         Charge_Pulay               dRrho         2.1629
         Charge_Pulay                drho         2.1629
 ----------------------------------------------------------
