 *********************************************************
 *                                                       *
 *                  WELCOME TO ABACUS v3.0               *
 *                                                       *
 *            'Atomic-orbital Based Ab-initio            *
 *                  Computation at UStc'                 *
 *                                                       *
 *          Website: http://abacus.ustc.edu.cn/          *
 *                                                       *
 *********************************************************
 Mon Apr 17 14:55:13 2023
 MAKE THE DIR         : OUT.blpstest/
Notice: symbol 'Li_locpsp' is not an element symbol!!!! set the covalent radius to be 0.
 UNIFORM GRID DIM     : 25 * 25 * 25
 UNIFORM GRID DIM(BIG): 25 * 25 * 25
func,idXC_GGA_X_PBE 101
func,idXC_GGA_C_PBE 130
 DONE(0.136352   SEC) : SETUP UNITCELL
 DONE(0.219913   SEC) : SYMMETRY
 DONE(0.555311   SEC) : INIT K-POINTS
 ---------------------------------------------------------
 Self-consistent calculations for electrons
 ---------------------------------------------------------
 SPIN    KPOINTS         PROCESSORS  
 1       286             1           
 ---------------------------------------------------------
 Use plane wave basis
 ---------------------------------------------------------
 ELEMENT NATOM       XC          
 Li      1           
 ---------------------------------------------------------
 Initial plane wave basis and FFT box
 ---------------------------------------------------------
 DONE(0.556176   SEC) : INIT BASIS
 DONE(0.556213   SEC) : INIT PHI
 DONE(0.578403   SEC) : LOCAL POTENTIAL
 DONE(0.578441   SEC) : NON-LOCAL POTENTIAL
 START CHARGE      : atomic
 DONE(0.624113   SEC) : INIT POTENTIAL
 DONE(0.624169   SEC) : INIT OPTIMIZATION
 DONE(0.62499    SEC) : INIT KEDF
======================== Running OFDFT ========================
Iter        Etot(Ha)          Theta      PotNorm     deltaE(Ha)
0     -2.621339501904e-01   2.000e-01   7.372e-02   -2.621e-01  
1     -2.720437400140e-01   7.113e-02   1.800e-02   -9.910e-03  
2     -2.722132440014e-01   1.165e-02   2.444e-03   -1.695e-04  
3     -2.722158222724e-01   1.230e-03   2.979e-04   -2.578e-06  
4     -2.722158851950e-01   2.307e-04   1.093e-04   -6.292e-08  
5     -2.722158907009e-01   4.122e-05   6.652e-05   -5.506e-09  

  |CLASS_NAME---------|NAME---------------|TIME(Sec)-----|CALLS----|AVG------|PER%-------
                       total               5.9479         21        0.28      1e+02     %
   Driver              driver_line         5.9419         1         5.9       1e+02     %
   PW_Basis            setuptransform      0.12295        1         0.12      2.1       %
   PW_Basis            recip2real          0.81415        1178      0.00069   14        %
   Potential           update_from_charge  3.0996         131       0.024     52        %
   Potential           cal_v_eff           3.0984         131       0.024     52        %
   H_Hartree_pw        v_hartree           0.22259        131       0.0017    3.7       %
   PW_Basis            real2recip          0.96466        1438      0.00067   16        %
   PotXC               cal_v_eff           2.8591         131       0.022     48        %
   XC_Functional       v_xc                2.6341         66        0.04      44        %
   XC_Functional       v_xc_libxc          2.8476         131       0.022     48        %
   ESolver_OF          Run                 5.3224         1         5.3       89        %
   KEDF_TF             tf_potential        0.43524        130       0.0033    7.3       %
   KEDF_WT             wt_potential        1.458          130       0.011     25        %
   KEDF_vW             vw_potential        0.2274         130       0.0017    3.8       %
 ----------------------------------------------------------------------------------------

 START  Time  : Mon Apr 17 14:55:13 2023
 FINISH Time  : Mon Apr 17 14:55:19 2023
 TOTAL  Time  : 6
 SEE INFORMATION IN : OUT.blpstest/
