 *********************************************************
 *                                                       *
 *                  WELCOME TO ABACUS v3.0               *
 *                                                       *
 *            'Atomic-orbital Based Ab-initio            *
 *                  Computation at UStc'                 *
 *                                                       *
 *          Website: http://abacus.ustc.edu.cn/          *
 *                                                       *
 *********************************************************
 Mon Mar  6 13:41:47 2023
 MAKE THE DIR         : OUT.blpstest/
Notice: symbol 'Li_locpsp' is not an element symbol!!!! set the covalent radius to be 0.
Notice: symbol 'mg_locpsp' is not an element symbol!!!! set the covalent radius to be 0.
 UNIFORM GRID DIM     : 30 * 30 * 30
 UNIFORM GRID DIM(BIG): 30 * 30 * 30
func,idXC_GGA_X_PBE 101
func,idXC_GGA_C_PBE 130
 DONE(0.116566   SEC) : SETUP UNITCELL
 DONE(0.146807   SEC) : SYMMETRY
 DONE(0.309288   SEC) : INIT K-POINTS
 ---------------------------------------------------------
 Self-consistent calculations for electrons
 ---------------------------------------------------------
 SPIN    KPOINTS         PROCESSORS  
 1       286             1           
 ---------------------------------------------------------
 Use plane wave basis
 ---------------------------------------------------------
 ELEMENT NATOM       XC          
 Li      1           
 Mg      1           
 ---------------------------------------------------------
 Initial plane wave basis and FFT box
 ---------------------------------------------------------
 DONE(0.384198   SEC) : INIT PLANEWAVE
 MEMORY FOR PSI (MB)  : 43.3085
 DONE(0.412316   SEC) : LOCAL POTENTIAL
 DONE(0.412342   SEC) : NON-LOCAL POTENTIAL
 DONE(0.412386   SEC) : INIT BASIS
 START CHARGE      : atomic
 DONE(0.457946   SEC) : INIT SCF
 ITER   ETOT(eV)       EDIFF(eV)      DRHO       TIME(s)    
 CG1    -3.170719e+01  0.000000e+00   5.823e-02  1.354e+01  
 CG2    -3.202727e+01  -3.200832e-01  5.401e-03  5.213e+00  
 CG3    -3.203309e+01  -5.822714e-03  1.146e-05  6.526e+00  
 CG4    -3.203365e+01  -5.580524e-04  1.968e-06  9.530e+00  
 CG5    -3.203366e+01  -1.162129e-05  1.093e-07  4.862e+00  
 CG6    -3.203366e+01  -4.777838e-07  7.481e-10  6.083e+00  

  |CLASS_NAME---------|NAME---------------|TIME(Sec)-----|CALLS----|AVG------|PER%-------
                       total               46.228         17        2.7       1e+02     %
   Driver              driver_line         46.218         1         46        1e+02     %
   ESolver_KS_PW       Run                 45.808         1         46        99        %
   Potential           update_from_charge  0.13191        7         0.019     0.29      %
   Potential           cal_v_eff           0.13126        7         0.019     0.28      %
   PotXC               cal_v_eff           0.12126        7         0.017     0.26      %
   XC_Functional       v_xc                24.933         4         6.2       54        %
   XC_Functional       v_xc_libxc          0.12074        7         0.017     0.26      %
   HSolverPW           solve               45.622         6         7.6       99        %
   DiagoIterAssist     diagH_subspace      7.8            1716      0.0045    17        %
   OperatorPW          hPsi                41.719         44266     0.00094   90        %
   Operator            EkineticPW          0.1743         44266     3.9e-06   0.38      %
   Operator            VeffPW              41.437         44266     0.00094   90        %
   PW_Basis_K          recip2real          21.998         55684     0.0004    48        %
   PW_Basis_K          gathers_scatterp    1.8545         55684     3.3e-05   4         %
   PW_Basis_K          real2recip          18.841         52846     0.00036   41        %
   PW_Basis_K          gatherp_scatters    0.46581        52846     8.8e-06   1         %
   DiagoCG             diag_once           36.228         1716      0.021     78        %
   ElecStatePW         psiToRho            1.109          6         0.18      2.4       %
 ----------------------------------------------------------------------------------------

 START  Time  : Mon Mar  6 13:41:47 2023
 FINISH Time  : Mon Mar  6 13:42:34 2023
 TOTAL  Time  : 47
 SEE INFORMATION IN : OUT.blpstest/
