 *********************************************************
 *                                                       *
 *                  WELCOME TO ABACUS v3.0               *
 *                                                       *
 *            'Atomic-orbital Based Ab-initio            *
 *                  Computation at UStc'                 *
 *                                                       *
 *          Website: http://abacus.ustc.edu.cn/          *
 *                                                       *
 *********************************************************
 Tue May  2 12:45:52 2023
 MAKE THE DIR         : OUT.blpstest/
Notice: symbol 'al_locpsp' is not an element symbol!!!! set the covalent radius to be 0.
 UNIFORM GRID DIM     : 30 * 30 * 30
 UNIFORM GRID DIM(BIG): 30 * 30 * 30
func,idXC_GGA_X_PBE 101
func,idXC_GGA_C_PBE 130
 DONE(0.14732    SEC) : SETUP UNITCELL
 DONE(0.202189   SEC) : SYMMETRY
 DONE(0.560159   SEC) : INIT K-POINTS
 ---------------------------------------------------------
 Self-consistent calculations for electrons
 ---------------------------------------------------------
 SPIN    KPOINTS         PROCESSORS  
 1       256             1           
 ---------------------------------------------------------
 Use plane wave basis
 ---------------------------------------------------------
 ELEMENT NATOM       XC          
 Al      1           
 ---------------------------------------------------------
 Initial plane wave basis and FFT box
 ---------------------------------------------------------
 DONE(0.561431   SEC) : INIT BASIS
 DONE(0.561455   SEC) : INIT PHI
 DONE(0.612695   SEC) : LOCAL POTENTIAL
 DONE(0.61273    SEC) : NON-LOCAL POTENTIAL
 START CHARGE      : atomic
 DONE(0.719614   SEC) : INIT POTENTIAL
 DONE(0.71988    SEC) : INIT OPTIMIZATION
Default type: double
 DONE(0.721739   SEC) : INIT KEDF
======================== Running OFDFT ========================
Iter        Etot(Ha)          Theta      PotNorm     deltaE(Ha)
0     -2.020039520098e+00   2.000e-01   1.696e-01   -2.020e+00  
1     -2.042636047360e+00   7.022e-02   2.485e-01   -2.260e-02  
2     -2.100545353339e+00   7.812e-02   7.867e-02   -5.791e-02  
3     -2.101693086369e+00   7.569e-03   1.314e-02   -1.148e-03  
4     -2.101730101536e+00   1.433e-03   6.202e-03   -3.702e-05  
5     -2.101745457334e+00   1.729e-03   5.478e-04   -1.536e-05  
6     -2.101745591873e+00   1.227e-04   1.040e-04   -1.345e-07  
7     -2.101745597329e+00   3.546e-05   8.950e-06   -5.455e-09  

  |CLASS_NAME---------|NAME---------------|TIME(Sec)-----|CALLS----|AVG------|PER%-------
                       total               17.044         21        0.81      1e+02     %
   Driver              driver_line         17.019         1         17        1e+02     %
   PW_Basis            setuptransform      0.1108         1         0.11      0.65      %
   PW_Basis            recip2real          3.6414         2296      0.0016    21        %
   PW_Basis            gathers_scatterp    0.4261         2296      0.00019   2.5       %
   Potential           update_from_charge  9.6633         177       0.055     57        %
   Potential           cal_v_eff           9.6605         177       0.055     57        %
   H_Hartree_pw        v_hartree           0.76732        177       0.0043    4.5       %
   PW_Basis            real2recip          3.8875         2296      0.0017    23        %
   PW_Basis            gatherp_scatters    0.37457        2296      0.00016   2.2       %
   PotXC               cal_v_eff           8.8366         177       0.05      52        %
   XC_Functional       v_xc                8.1575         89        0.092     48        %
   XC_Functional       v_xc_libxc          8.6338         177       0.049     51        %
   ESolver_OF          Run                 16.322         1         16        96        %
   KEDF_LKT            LKT_potential       5.6789         176       0.032     33        %
   KEDF_vW             vw_potential        0.66525        176       0.0038    3.9       %
 ----------------------------------------------------------------------------------------

 START  Time  : Tue May  2 12:45:52 2023
 FINISH Time  : Tue May  2 12:46:09 2023
 TOTAL  Time  : 17
 SEE INFORMATION IN : OUT.blpstest/
