 *********************************************************
 *                                                       *
 *                  WELCOME TO ABACUS v3.0               *
 *                                                       *
 *            'Atomic-orbital Based Ab-initio            *
 *                  Computation at UStc'                 *
 *                                                       *
 *          Website: http://abacus.ustc.edu.cn/          *
 *                                                       *
 *********************************************************
 Tue May  2 12:50:04 2023
 MAKE THE DIR         : OUT.blpstest/
Notice: symbol 'mg_locpsp' is not an element symbol!!!! set the covalent radius to be 0.
 UNIFORM GRID DIM     : 27 * 27 * 27
 UNIFORM GRID DIM(BIG): 27 * 27 * 27
func,idXC_GGA_X_PBE 101
func,idXC_GGA_C_PBE 130
 DONE(0.110481   SEC) : SETUP UNITCELL
 DONE(0.165523   SEC) : SYMMETRY
 DONE(0.165744   SEC) : INIT K-POINTS
 ---------------------------------------------------------
 Self-consistent calculations for electrons
 ---------------------------------------------------------
 SPIN    KPOINTS         PROCESSORS  
 1       1               1           
 ---------------------------------------------------------
 Use plane wave basis
 ---------------------------------------------------------
 ELEMENT NATOM       XC          
 Mg      1           
 ---------------------------------------------------------
 Initial plane wave basis and FFT box
 ---------------------------------------------------------
 DONE(0.16691    SEC) : INIT BASIS
 DONE(0.166936   SEC) : INIT PHI
 DONE(0.208831   SEC) : LOCAL POTENTIAL
 DONE(0.208864   SEC) : NON-LOCAL POTENTIAL
 START CHARGE      : atomic
 DONE(0.283507   SEC) : INIT POTENTIAL
 DONE(0.283573   SEC) : INIT OPTIMIZATION
Default type: double
 DONE(0.284643   SEC) : INIT KEDF
======================== Running OFDFT ========================
Iter        Etot(Ha)          Theta      PotNorm     deltaE(Ha)
0     -8.346725850799e-01   2.000e-01   1.279e-01   -8.347e-01  
1     -8.849907729238e-01   1.096e-01   9.066e-02   -5.032e-02  
2     -8.865714352781e-01   1.294e-02   1.069e-02   -1.581e-03  
3     -8.866158671996e-01   3.119e-03   4.405e-03   -4.443e-05  
4     -8.866237045054e-01   1.566e-03   3.832e-04   -7.837e-06  
5     -8.866237493288e-01   7.363e-05   3.062e-05   -4.482e-08  
6     -8.866237497639e-01   1.016e-05   1.682e-05   -4.350e-10  

  |CLASS_NAME---------|NAME---------------|TIME(Sec)-----|CALLS----|AVG------|PER%-------
                       total               13.773         21        0.66      1e+02     %
   Driver              driver_line         13.761         1         14        1e+02     %
   PW_Basis            recip2real          2.7376         2062      0.0013    20        %
   PW_Basis            gathers_scatterp    0.32133        2062      0.00016   2.3       %
   Potential           update_from_charge  7.9868         159       0.05      58        %
   Potential           cal_v_eff           7.9837         159       0.05      58        %
   H_Hartree_pw        v_hartree           0.72574        159       0.0046    5.3       %
   PW_Basis            real2recip          3.1513         2062      0.0015    23        %
   PW_Basis            gatherp_scatters    0.31444        2062      0.00015   2.3       %
   PotXC               cal_v_eff           7.2022         159       0.045     52        %
   XC_Functional       v_xc                6.7121         80        0.084     49        %
   XC_Functional       v_xc_libxc          7.0841         159       0.045     51        %
   ESolver_OF          Run                 13.485         1         13        98        %
   KEDF_LKT            LKT_potential       4.4822         158       0.028     33        %
   KEDF_vW             vw_potential        0.64533        158       0.0041    4.7       %
 ----------------------------------------------------------------------------------------

 START  Time  : Tue May  2 12:50:04 2023
 FINISH Time  : Tue May  2 12:50:18 2023
 TOTAL  Time  : 14
 SEE INFORMATION IN : OUT.blpstest/
