 *********************************************************
 *                                                       *
 *                  WELCOME TO ABACUS v3.0               *
 *                                                       *
 *            'Atomic-orbital Based Ab-initio            *
 *                  Computation at UStc'                 *
 *                                                       *
 *          Website: http://abacus.ustc.edu.cn/          *
 *                                                       *
 *********************************************************
 Mon Apr 17 14:53:45 2023
 MAKE THE DIR         : OUT.blpstest/
Notice: symbol 'Li_locpsp' is not an element symbol!!!! set the covalent radius to be 0.
 UNIFORM GRID DIM     : 25 * 25 * 25
 UNIFORM GRID DIM(BIG): 25 * 25 * 25
func,idXC_GGA_X_PBE 101
func,idXC_GGA_C_PBE 130
 DONE(0.0822304  SEC) : SETUP UNITCELL
 DONE(0.137533   SEC) : SYMMETRY
 DONE(0.47226    SEC) : INIT K-POINTS
 ---------------------------------------------------------
 Self-consistent calculations for electrons
 ---------------------------------------------------------
 SPIN    KPOINTS         PROCESSORS  
 1       286             1           
 ---------------------------------------------------------
 Use plane wave basis
 ---------------------------------------------------------
 ELEMENT NATOM       XC          
 Li      1           
 ---------------------------------------------------------
 Initial plane wave basis and FFT box
 ---------------------------------------------------------
 DONE(0.473055   SEC) : INIT BASIS
 DONE(0.473081   SEC) : INIT PHI
 DONE(0.49602    SEC) : LOCAL POTENTIAL
 DONE(0.496053   SEC) : NON-LOCAL POTENTIAL
 START CHARGE      : atomic
 DONE(0.538104   SEC) : INIT POTENTIAL
 DONE(0.53815    SEC) : INIT OPTIMIZATION
 DONE(0.538807   SEC) : INIT KEDF
======================== Running OFDFT ========================
Iter        Etot(Ha)          Theta      PotNorm     deltaE(Ha)
0     -2.617735831753e-01   2.000e-01   7.588e-02   -2.618e-01  
1     -2.720097955862e-01   7.233e-02   2.028e-02   -1.024e-02  
2     -2.721966939348e-01   1.241e-02   1.447e-03   -1.869e-04  
3     -2.721977204889e-01   5.724e-04   4.613e-04   -1.027e-06  
4     -2.721978232686e-01   3.016e-04   3.953e-05   -1.028e-07  
5     -2.721978243499e-01   2.533e-05   7.045e-06   -1.081e-09  

  |CLASS_NAME---------|NAME---------------|TIME(Sec)-----|CALLS----|AVG------|PER%-------
                       total               6.8784         21        0.33      1e+02     %
   Driver              driver_line         6.8719         1         6.9       1e+02     %
   PW_Basis            recip2real          0.88159        1340      0.00066   13        %
   PW_Basis            gathers_scatterp    0.10196        1340      7.6e-05   1.5       %
   Potential           update_from_charge  3.6757         149       0.025     53        %
   Potential           cal_v_eff           3.6745         149       0.025     53        %
   H_Hartree_pw        v_hartree           0.26842        149       0.0018    3.9       %
   PW_Basis            real2recip          1.1705         1636      0.00072   17        %
   PW_Basis            gatherp_scatters    0.10974        1636      6.7e-05   1.6       %
   PotXC               cal_v_eff           3.383          149       0.023     49        %
   XC_Functional       v_xc                3.192          75        0.043     46        %
   XC_Functional       v_xc_libxc          3.3683         149       0.023     49        %
   ESolver_OF          Run                 6.3393         1         6.3       92        %
   KEDF_TF             tf_potential        0.51052        148       0.0034    7.4       %
   KEDF_WT             wt_potential        1.7141         148       0.012     25        %
   KEDF_vW             vw_potential        0.2762         148       0.0019    4         %
 ----------------------------------------------------------------------------------------

 START  Time  : Mon Apr 17 14:53:45 2023
 FINISH Time  : Mon Apr 17 14:53:52 2023
 TOTAL  Time  : 7
 SEE INFORMATION IN : OUT.blpstest/
