 *********************************************************
 *                                                       *
 *                  WELCOME TO ABACUS v3.0               *
 *                                                       *
 *            'Atomic-orbital Based Ab-initio            *
 *                  Computation at UStc'                 *
 *                                                       *
 *          Website: http://abacus.ustc.edu.cn/          *
 *                                                       *
 *********************************************************
 Thu Jan 11 22:41:48 2024
 MAKE THE DIR         : OUT.oftest/
Notice: symbol 'al_locpsp' is not an element symbol!!!! set the covalent radius to be 0.
Notice: symbol 'mg_locpsp' is not an element symbol!!!! set the covalent radius to be 0.
 UNIFORM GRID DIM     : 80 * 80 * 80
 UNIFORM GRID DIM(BIG): 80 * 80 * 80
func,idXC_GGA_X_PBE 101
func,idXC_GGA_C_PBE 130
 DONE(1.97113    SEC) : SETUP UNITCELL
 DONE(2.08079    SEC) : SYMMETRY
 DONE(2.10274    SEC) : INIT K-POINTS
 ---------------------------------------------------------
 Self-consistent calculations for electrons
 ---------------------------------------------------------
 SPIN    KPOINTS         PROCESSORS  
 1       504             1           
 ---------------------------------------------------------
 Use plane wave basis
 ---------------------------------------------------------
 ELEMENT NATOM       XC          
 Al      16          
 Mg      16          
 ---------------------------------------------------------
 Initial plane wave basis and FFT box
 ---------------------------------------------------------
 DONE(11.7199    SEC) : INIT BASIS
 DONE(11.72      SEC) : INIT PHI
 DONE(12.2441    SEC) : LOCAL POTENTIAL
 DONE(12.2441    SEC) : NON-LOCAL POTENTIAL
 START CHARGE      : atomic
 DONE(15.8502    SEC) : INIT POTENTIAL
 DONE(15.8589    SEC) : INIT OPTIMIZATION
Default type: double
nnode = 10
nlayer = 3
feg_net_F = 0.540933
 DONE(16.2555    SEC) : INIT KEDF
======================== Running OFDFT ========================
Iter        Etot(Ha)          Theta      PotNorm     deltaE(Ha)
0     -4.408175700076e+01   2.000e-01   1.987e-01   -4.408e+01  
WARNING: pauli potential < 0 !!  27
WARNING: pauli potential < 0 !!  128
WARNING: pauli potential < 0 !!  128
1     -4.743638092135e+01   1.319e-01   1.447e-01   -3.355e+00  
WARNING: pauli potential < 0 !!  128
WARNING: pauli potential < 0 !!  128
WARNING: pauli potential < 0 !!  128
WARNING: pauli potential < 0 !!  128
WARNING: pauli potential < 0 !!  128
WARNING: pauli potential < 0 !!  128
WARNING: pauli potential < 0 !!  128
WARNING: pauli potential < 0 !!  128
WARNING: pauli potential < 0 !!  128
WARNING: pauli potential < 0 !!  128
WARNING: pauli potential < 0 !!  128
WARNING: pauli potential < 0 !!  128
WARNING: pauli potential < 0 !!  128
WARNING: pauli potential < 0 !!  128
WARNING: pauli potential < 0 !!  117
WARNING: pauli potential < 0 !!  157
WARNING: pauli potential < 0 !!  157
2     -4.753681279500e+01   1.397e-02   1.616e-01   -1.004e-01  
WARNING: pauli potential < 0 !!  157
WARNING: pauli potential < 0 !!  157
WARNING: pauli potential < 0 !!  157
WARNING: pauli potential < 0 !!  157
WARNING: pauli potential < 0 !!  157
WARNING: pauli potential < 0 !!  157
WARNING: pauli potential < 0 !!  157
WARNING: pauli potential < 0 !!  157
WARNING: pauli potential < 0 !!  137
WARNING: pauli potential < 0 !!  157
WARNING: pauli potential < 0 !!  157
3     -4.756468575625e+01   3.328e-03   1.691e-01   -2.787e-02  
WARNING: pauli potential < 0 !!  157
WARNING: pauli potential < 0 !!  157
WARNING: pauli potential < 0 !!  157
WARNING: pauli potential < 0 !!  157
WARNING: pauli potential < 0 !!  158
WARNING: pauli potential < 0 !!  158
WARNING: pauli potential < 0 !!  158
WARNING: pauli potential < 0 !!  157
WARNING: pauli potential < 0 !!  243
WARNING: pauli potential < 0 !!  148
WARNING: pauli potential < 0 !!  148
4     -4.756912710125e+01   1.100e-03   1.725e-01   -4.441e-03  
WARNING: pauli potential < 0 !!  148
WARNING: pauli potential < 0 !!  148
WARNING: pauli potential < 0 !!  148
WARNING: pauli potential < 0 !!  148
WARNING: pauli potential < 0 !!  148
WARNING: pauli potential < 0 !!  148
WARNING: pauli potential < 0 !!  149
WARNING: pauli potential < 0 !!  122
WARNING: pauli potential < 0 !!  100
WARNING: pauli potential < 0 !!  100
5     -4.762207036032e+01   2.870e-03   7.264e-02   -5.294e-02  
WARNING: pauli potential < 0 !!  100
WARNING: pauli potential < 0 !!  100
WARNING: pauli potential < 0 !!  100
WARNING: pauli potential < 0 !!  100
WARNING: pauli potential < 0 !!  100
WARNING: pauli potential < 0 !!  97
WARNING: pauli potential < 0 !!  64
WARNING: pauli potential < 0 !!  47
WARNING: pauli potential < 0 !!  61
WARNING: pauli potential < 0 !!  61
6     -4.762914324823e+01   1.064e-03   5.197e-02   -7.073e-03  
WARNING: pauli potential < 0 !!  61
WARNING: pauli potential < 0 !!  61
WARNING: pauli potential < 0 !!  61
WARNING: pauli potential < 0 !!  61
WARNING: pauli potential < 0 !!  61
WARNING: pauli potential < 0 !!  69
WARNING: pauli potential < 0 !!  61
WARNING: pauli potential < 0 !!  61
7     -4.763233652192e+01   8.392e-04   5.011e-02   -3.193e-03  
WARNING: pauli potential < 0 !!  61
WARNING: pauli potential < 0 !!  61
WARNING: pauli potential < 0 !!  61
WARNING: pauli potential < 0 !!  61
WARNING: pauli potential < 0 !!  61
WARNING: pauli potential < 0 !!  65
WARNING: pauli potential < 0 !!  50
WARNING: pauli potential < 0 !!  50
8     -4.763506485407e+01   6.789e-04   4.410e-02   -2.728e-03  
WARNING: pauli potential < 0 !!  50
WARNING: pauli potential < 0 !!  50
WARNING: pauli potential < 0 !!  50
WARNING: pauli potential < 0 !!  50
WARNING: pauli potential < 0 !!  55
WARNING: pauli potential < 0 !!  65
WARNING: pauli potential < 0 !!  46
WARNING: pauli potential < 0 !!  46
9     -4.763788591155e+01   6.063e-04   2.858e-02   -2.821e-03  
WARNING: pauli potential < 0 !!  46
WARNING: pauli potential < 0 !!  46
WARNING: pauli potential < 0 !!  46
WARNING: pauli potential < 0 !!  46
WARNING: pauli potential < 0 !!  50
WARNING: pauli potential < 0 !!  59
WARNING: pauli potential < 0 !!  49
WARNING: pauli potential < 0 !!  60
WARNING: pauli potential < 0 !!  60
10    -4.763943797586e+01   5.090e-04   2.742e-02   -1.552e-03  
WARNING: pauli potential < 0 !!  60
WARNING: pauli potential < 0 !!  60
WARNING: pauli potential < 0 !!  60
WARNING: pauli potential < 0 !!  60
WARNING: pauli potential < 0 !!  80
WARNING: pauli potential < 0 !!  79
WARNING: pauli potential < 0 !!  79
11    -4.764044916344e+01   3.657e-04   2.833e-02   -1.011e-03  
WARNING: pauli potential < 0 !!  79
WARNING: pauli potential < 0 !!  79
WARNING: pauli potential < 0 !!  79
WARNING: pauli potential < 0 !!  79
WARNING: pauli potential < 0 !!  91
WARNING: pauli potential < 0 !!  77
WARNING: pauli potential < 0 !!  77
12    -4.764154341355e+01   4.552e-04   2.848e-02   -1.094e-03  
WARNING: pauli potential < 0 !!  77
WARNING: pauli potential < 0 !!  77
WARNING: pauli potential < 0 !!  77
WARNING: pauli potential < 0 !!  91
WARNING: pauli potential < 0 !!  70
WARNING: pauli potential < 0 !!  77
WARNING: pauli potential < 0 !!  77
13    -4.764235836640e+01   2.015e-04   1.861e-02   -8.150e-04  
WARNING: pauli potential < 0 !!  77
WARNING: pauli potential < 0 !!  77
WARNING: pauli potential < 0 !!  77
WARNING: pauli potential < 0 !!  77
WARNING: pauli potential < 0 !!  140
WARNING: pauli potential < 0 !!  103
WARNING: pauli potential < 0 !!  53
WARNING: pauli potential < 0 !!  53
14    -4.764347677612e+01   7.456e-04   3.217e-02   -1.118e-03  
WARNING: pauli potential < 0 !!  53
WARNING: pauli potential < 0 !!  53
WARNING: pauli potential < 0 !!  53
WARNING: pauli potential < 0 !!  53
WARNING: pauli potential < 0 !!  59
WARNING: pauli potential < 0 !!  65
WARNING: pauli potential < 0 !!  65
15    -4.764482228890e+01   3.605e-04   2.823e-02   -1.346e-03  
WARNING: pauli potential < 0 !!  65
WARNING: pauli potential < 0 !!  65
WARNING: pauli potential < 0 !!  65
WARNING: pauli potential < 0 !!  65
WARNING: pauli potential < 0 !!  65
WARNING: pauli potential < 0 !!  88
WARNING: pauli potential < 0 !!  88
16    -4.764567502537e+01   3.083e-04   2.636e-02   -8.527e-04  
WARNING: pauli potential < 0 !!  88
WARNING: pauli potential < 0 !!  88
WARNING: pauli potential < 0 !!  88
WARNING: pauli potential < 0 !!  90
WARNING: pauli potential < 0 !!  78
WARNING: pauli potential < 0 !!  96
WARNING: pauli potential < 0 !!  96
17    -4.764624139842e+01   1.492e-04   1.531e-02   -5.664e-04  
WARNING: pauli potential < 0 !!  96
WARNING: pauli potential < 0 !!  96
WARNING: pauli potential < 0 !!  96
WARNING: pauli potential < 0 !!  89
WARNING: pauli potential < 0 !!  90
WARNING: pauli potential < 0 !!  93
WARNING: pauli potential < 0 !!  93
18    -4.764654928074e+01   1.790e-04   2.022e-02   -3.079e-04  
WARNING: pauli potential < 0 !!  93
WARNING: pauli potential < 0 !!  93
WARNING: pauli potential < 0 !!  93
WARNING: pauli potential < 0 !!  88
WARNING: pauli potential < 0 !!  71
WARNING: pauli potential < 0 !!  69
WARNING: pauli potential < 0 !!  69
19    -4.764689367712e+01   1.301e-04   1.489e-02   -3.444e-04  
WARNING: pauli potential < 0 !!  69
WARNING: pauli potential < 0 !!  69
WARNING: pauli potential < 0 !!  69
WARNING: pauli potential < 0 !!  67
WARNING: pauli potential < 0 !!  78
WARNING: pauli potential < 0 !!  126
WARNING: pauli potential < 0 !!  126
20    -4.764717180699e+01   1.597e-04   1.961e-02   -2.781e-04  
WARNING: pauli potential < 0 !!  126
WARNING: pauli potential < 0 !!  126
WARNING: pauli potential < 0 !!  126
WARNING: pauli potential < 0 !!  110
WARNING: pauli potential < 0 !!  66
WARNING: pauli potential < 0 !!  95
WARNING: pauli potential < 0 !!  95
21    -4.764747008116e+01   1.228e-04   1.543e-02   -2.983e-04  
WARNING: pauli potential < 0 !!  95
WARNING: pauli potential < 0 !!  95
WARNING: pauli potential < 0 !!  95
WARNING: pauli potential < 0 !!  79
WARNING: pauli potential < 0 !!  72
WARNING: pauli potential < 0 !!  127
WARNING: pauli potential < 0 !!  127
22    -4.764771190757e+01   1.346e-04   1.817e-02   -2.418e-04  
WARNING: pauli potential < 0 !!  127
WARNING: pauli potential < 0 !!  127
WARNING: pauli potential < 0 !!  127
WARNING: pauli potential < 0 !!  105
WARNING: pauli potential < 0 !!  70
WARNING: pauli potential < 0 !!  93
WARNING: pauli potential < 0 !!  93
23    -4.764797325425e+01   1.237e-04   1.578e-02   -2.613e-04  
WARNING: pauli potential < 0 !!  93
WARNING: pauli potential < 0 !!  93
WARNING: pauli potential < 0 !!  93
WARNING: pauli potential < 0 !!  80
WARNING: pauli potential < 0 !!  81
WARNING: pauli potential < 0 !!  78
WARNING: pauli potential < 0 !!  78
24    -4.764821278775e+01   1.183e-04   1.596e-02   -2.395e-04  
WARNING: pauli potential < 0 !!  78
WARNING: pauli potential < 0 !!  78
WARNING: pauli potential < 0 !!  78
WARNING: pauli potential < 0 !!  77
WARNING: pauli potential < 0 !!  57
WARNING: pauli potential < 0 !!  113
WARNING: pauli potential < 0 !!  113
25    -4.764846511472e+01   1.390e-04   1.725e-02   -2.523e-04  
WARNING: pauli potential < 0 !!  113
WARNING: pauli potential < 0 !!  113
WARNING: pauli potential < 0 !!  113
WARNING: pauli potential < 0 !!  113
WARNING: pauli potential < 0 !!  163
WARNING: pauli potential < 0 !!  176
WARNING: pauli potential < 0 !!  176
26    -4.764883928487e+01   1.787e-04   1.989e-02   -3.742e-04  
WARNING: pauli potential < 0 !!  176
WARNING: pauli potential < 0 !!  176
WARNING: pauli potential < 0 !!  176
WARNING: pauli potential < 0 !!  147
WARNING: pauli potential < 0 !!  105
WARNING: pauli potential < 0 !!  105
27    -4.764912611820e+01   8.411e-05   1.320e-02   -2.868e-04  
WARNING: pauli potential < 0 !!  105
WARNING: pauli potential < 0 !!  105
WARNING: pauli potential < 0 !!  105
WARNING: pauli potential < 0 !!  105
WARNING: pauli potential < 0 !!  95
WARNING: pauli potential < 0 !!  118
WARNING: pauli potential < 0 !!  78
WARNING: pauli potential < 0 !!  101
WARNING: pauli potential < 0 !!  101
28    -4.764969201976e+01   4.688e-04   2.504e-02   -5.659e-04  
WARNING: pauli potential < 0 !!  101
WARNING: pauli potential < 0 !!  101
WARNING: pauli potential < 0 !!  101
WARNING: pauli potential < 0 !!  89
WARNING: pauli potential < 0 !!  166
WARNING: pauli potential < 0 !!  79
WARNING: pauli potential < 0 !!  79
29    -4.765049514944e+01   2.224e-04   1.593e-02   -8.031e-04  
WARNING: pauli potential < 0 !!  79
WARNING: pauli potential < 0 !!  79
WARNING: pauli potential < 0 !!  79
WARNING: pauli potential < 0 !!  79
WARNING: pauli potential < 0 !!  86
WARNING: pauli potential < 0 !!  83
WARNING: pauli potential < 0 !!  83
30    -4.765096076708e+01   2.154e-04   1.560e-02   -4.656e-04  
WARNING: pauli potential < 0 !!  83
WARNING: pauli potential < 0 !!  83
WARNING: pauli potential < 0 !!  83
WARNING: pauli potential < 0 !!  83
WARNING: pauli potential < 0 !!  121
WARNING: pauli potential < 0 !!  102
WARNING: pauli potential < 0 !!  102
31    -4.765139007903e+01   2.302e-04   1.781e-02   -4.293e-04  
WARNING: pauli potential < 0 !!  102
WARNING: pauli potential < 0 !!  102
WARNING: pauli potential < 0 !!  102
WARNING: pauli potential < 0 !!  80
WARNING: pauli potential < 0 !!  88
WARNING: pauli potential < 0 !!  67
WARNING: pauli potential < 0 !!  67
32    -4.765174819544e+01   1.976e-04   1.545e-02   -3.581e-04  
WARNING: pauli potential < 0 !!  67
WARNING: pauli potential < 0 !!  67
WARNING: pauli potential < 0 !!  67
WARNING: pauli potential < 0 !!  67
WARNING: pauli potential < 0 !!  129
WARNING: pauli potential < 0 !!  136
WARNING: pauli potential < 0 !!  136
33    -4.765222494275e+01   2.564e-04   1.850e-02   -4.767e-04  
WARNING: pauli potential < 0 !!  136
WARNING: pauli potential < 0 !!  136
WARNING: pauli potential < 0 !!  136
WARNING: pauli potential < 0 !!  107
WARNING: pauli potential < 0 !!  65
WARNING: pauli potential < 0 !!  65
WARNING: pauli potential < 0 !!  66
WARNING: pauli potential < 0 !!  66
34    -4.765256785445e+01   1.669e-04   1.563e-02   -3.429e-04  
WARNING: pauli potential < 0 !!  66
WARNING: pauli potential < 0 !!  66
WARNING: pauli potential < 0 !!  66
WARNING: pauli potential < 0 !!  60
WARNING: pauli potential < 0 !!  53
WARNING: pauli potential < 0 !!  52
WARNING: pauli potential < 0 !!  64
WARNING: pauli potential < 0 !!  64
35    -4.765283193647e+01   1.429e-04   1.478e-02   -2.641e-04  
WARNING: pauli potential < 0 !!  64
WARNING: pauli potential < 0 !!  64
WARNING: pauli potential < 0 !!  64
WARNING: pauli potential < 0 !!  59
WARNING: pauli potential < 0 !!  59
WARNING: pauli potential < 0 !!  50
WARNING: pauli potential < 0 !!  50
36    -4.765306770904e+01   1.371e-04   1.513e-02   -2.358e-04  
WARNING: pauli potential < 0 !!  50
WARNING: pauli potential < 0 !!  50
WARNING: pauli potential < 0 !!  50
WARNING: pauli potential < 0 !!  46
WARNING: pauli potential < 0 !!  73
WARNING: pauli potential < 0 !!  107
WARNING: pauli potential < 0 !!  97
WARNING: pauli potential < 0 !!  97
37    -4.765330546877e+01   1.067e-04   1.436e-02   -2.378e-04  
WARNING: pauli potential < 0 !!  97
WARNING: pauli potential < 0 !!  97
WARNING: pauli potential < 0 !!  97
WARNING: pauli potential < 0 !!  97
WARNING: pauli potential < 0 !!  153
WARNING: pauli potential < 0 !!  179
WARNING: pauli potential < 0 !!  179
38    -4.765356951242e+01   1.477e-04   1.684e-02   -2.640e-04  
WARNING: pauli potential < 0 !!  179
WARNING: pauli potential < 0 !!  179
WARNING: pauli potential < 0 !!  179
WARNING: pauli potential < 0 !!  140
WARNING: pauli potential < 0 !!  166
WARNING: pauli potential < 0 !!  166
39    -4.765376127785e+01   6.372e-05   1.347e-02   -1.918e-04  
WARNING: pauli potential < 0 !!  165
WARNING: pauli potential < 0 !!  166
WARNING: pauli potential < 0 !!  166
WARNING: pauli potential < 0 !!  166
WARNING: pauli potential < 0 !!  166
WARNING: pauli potential < 0 !!  91
WARNING: pauli potential < 0 !!  160
WARNING: pauli potential < 0 !!  131
WARNING: pauli potential < 0 !!  131
40    -4.765415537284e+01   3.085e-04   2.050e-02   -3.941e-04  
WARNING: pauli potential < 0 !!  131
WARNING: pauli potential < 0 !!  131
WARNING: pauli potential < 0 !!  131
WARNING: pauli potential < 0 !!  138
WARNING: pauli potential < 0 !!  161
WARNING: pauli potential < 0 !!  161
41    -4.765454411548e+01   1.128e-04   1.457e-02   -3.887e-04  
WARNING: pauli potential < 0 !!  161
WARNING: pauli potential < 0 !!  161
WARNING: pauli potential < 0 !!  161
WARNING: pauli potential < 0 !!  161
WARNING: pauli potential < 0 !!  218
WARNING: pauli potential < 0 !!  190
WARNING: pauli potential < 0 !!  190
42    -4.765481276593e+01   1.452e-04   1.676e-02   -2.687e-04  
WARNING: pauli potential < 0 !!  190
WARNING: pauli potential < 0 !!  190
WARNING: pauli potential < 0 !!  190
WARNING: pauli potential < 0 !!  162
WARNING: pauli potential < 0 !!  152
WARNING: pauli potential < 0 !!  152
43    -4.765497967259e+01   6.704e-05   1.281e-02   -1.669e-04  
WARNING: pauli potential < 0 !!  152
WARNING: pauli potential < 0 !!  153
WARNING: pauli potential < 0 !!  152
WARNING: pauli potential < 0 !!  114
WARNING: pauli potential < 0 !!  135
WARNING: pauli potential < 0 !!  112
WARNING: pauli potential < 0 !!  112
44    -4.765510652781e+01   9.283e-05   1.454e-02   -1.269e-04  
WARNING: pauli potential < 0 !!  112
WARNING: pauli potential < 0 !!  112
WARNING: pauli potential < 0 !!  112
WARNING: pauli potential < 0 !!  95
WARNING: pauli potential < 0 !!  94
WARNING: pauli potential < 0 !!  94
45    -4.765527780215e+01   7.111e-05   1.192e-02   -1.713e-04  
WARNING: pauli potential < 0 !!  94
WARNING: pauli potential < 0 !!  94
WARNING: pauli potential < 0 !!  94
WARNING: pauli potential < 0 !!  94
WARNING: pauli potential < 0 !!  88
WARNING: pauli potential < 0 !!  123
WARNING: pauli potential < 0 !!  123
46    -4.765552454154e+01   1.535e-04   1.808e-02   -2.467e-04  
WARNING: pauli potential < 0 !!  123
WARNING: pauli potential < 0 !!  123
WARNING: pauli potential < 0 !!  123
WARNING: pauli potential < 0 !!  88
WARNING: pauli potential < 0 !!  101
WARNING: pauli potential < 0 !!  101
47    -4.765570358796e+01   5.694e-05   1.176e-02   -1.790e-04  
WARNING: pauli potential < 0 !!  101
WARNING: pauli potential < 0 !!  101
WARNING: pauli potential < 0 !!  101
WARNING: pauli potential < 0 !!  68
WARNING: pauli potential < 0 !!  107
WARNING: pauli potential < 0 !!  246
WARNING: pauli potential < 0 !!  246
48    -4.765580193774e+01   5.866e-05   1.437e-02   -9.835e-05  
WARNING: pauli potential < 0 !!  246
WARNING: pauli potential < 0 !!  246
WARNING: pauli potential < 0 !!  246
WARNING: pauli potential < 0 !!  183
WARNING: pauli potential < 0 !!  101
WARNING: pauli potential < 0 !!  101
49    -4.765589570403e+01   3.967e-05   1.108e-02   -9.377e-05  
WARNING: pauli potential < 0 !!  101
WARNING: pauli potential < 0 !!  101
WARNING: pauli potential < 0 !!  101
WARNING: pauli potential < 0 !!  101
WARNING: pauli potential < 0 !!  101
WARNING: pauli potential < 0 !!  82
WARNING: pauli potential < 0 !!  121
WARNING: pauli potential < 0 !!  188
WARNING: pauli potential < 0 !!  188
50    -4.765698359184e+01   8.332e-04   2.782e-02   -1.088e-03  
WARNING: pauli potential < 0 !!  188
WARNING: pauli potential < 0 !!  188
WARNING: pauli potential < 0 !!  188
WARNING: pauli potential < 0 !!  145
WARNING: pauli potential < 0 !!  179
WARNING: pauli potential < 0 !!  103
WARNING: pauli potential < 0 !!  103
51    -4.765782901983e+01   2.405e-04   1.760e-02   -8.454e-04  
WARNING: pauli potential < 0 !!  103
WARNING: pauli potential < 0 !!  103
WARNING: pauli potential < 0 !!  103
WARNING: pauli potential < 0 !!  77
WARNING: pauli potential < 0 !!  101
WARNING: pauli potential < 0 !!  101
52    -4.765807173938e+01   8.442e-05   1.279e-02   -2.427e-04  
WARNING: pauli potential < 0 !!  101
WARNING: pauli potential < 0 !!  101
WARNING: pauli potential < 0 !!  101
WARNING: pauli potential < 0 !!  96
WARNING: pauli potential < 0 !!  96
53    -4.765820375064e+01   6.638e-05   1.221e-02   -1.320e-04  
WARNING: pauli potential < 0 !!  96
WARNING: pauli potential < 0 !!  96
WARNING: pauli potential < 0 !!  96
WARNING: pauli potential < 0 !!  75
WARNING: pauli potential < 0 !!  120
WARNING: pauli potential < 0 !!  120
54    -4.765833738085e+01   1.001e-04   1.486e-02   -1.336e-04  
WARNING: pauli potential < 0 !!  121
WARNING: pauli potential < 0 !!  121
WARNING: pauli potential < 0 !!  120
WARNING: pauli potential < 0 !!  84
WARNING: pauli potential < 0 !!  131
WARNING: pauli potential < 0 !!  131
55    -4.765848779593e+01   8.106e-05   1.324e-02   -1.504e-04  
WARNING: pauli potential < 0 !!  131
WARNING: pauli potential < 0 !!  131
WARNING: pauli potential < 0 !!  131
WARNING: pauli potential < 0 !!  91
WARNING: pauli potential < 0 !!  145
WARNING: pauli potential < 0 !!  145
56    -4.765860126390e+01   5.368e-05   1.261e-02   -1.135e-04  
WARNING: pauli potential < 0 !!  145
WARNING: pauli potential < 0 !!  145
WARNING: pauli potential < 0 !!  145
WARNING: pauli potential < 0 !!  145
WARNING: pauli potential < 0 !!  119
WARNING: pauli potential < 0 !!  283
WARNING: pauli potential < 0 !!  283
57    -4.765876002393e+01   1.102e-04   1.833e-02   -1.588e-04  
WARNING: pauli potential < 0 !!  283
WARNING: pauli potential < 0 !!  283
WARNING: pauli potential < 0 !!  283
WARNING: pauli potential < 0 !!  205
WARNING: pauli potential < 0 !!  134
WARNING: pauli potential < 0 !!  134
58    -4.765888763575e+01   4.074e-05   1.174e-02   -1.276e-04  
WARNING: pauli potential < 0 !!  134
WARNING: pauli potential < 0 !!  134
WARNING: pauli potential < 0 !!  134
WARNING: pauli potential < 0 !!  134
WARNING: pauli potential < 0 !!  134
WARNING: pauli potential < 0 !!  134
WARNING: pauli potential < 0 !!  134
WARNING: pauli potential < 0 !!  134
WARNING: pauli potential < 0 !!  134
WARNING: pauli potential < 0 !!  134
WARNING: pauli potential < 0 !!  134
WARNING: pauli potential < 0 !!  134
WARNING: pauli potential < 0 !!  134
WARNING: pauli potential < 0 !!  134
WARNING: pauli potential < 0 !!  134
WARNING: pauli potential < 0 !!  135
WARNING: pauli potential < 0 !!  136
WARNING: pauli potential < 0 !!  141
WARNING: pauli potential < 0 !!  198
WARNING: pauli potential < 0 !!  227
WARNING: pauli potential < 0 !!  251
WARNING: pauli potential < 0 !!  255
WARNING: pauli potential < 0 !!  282
WARNING: pauli potential < 0 !!  282
59    -4.766798075994e+01   9.349e-03   6.090e-02   -9.093e-03  
WARNING: pauli potential < 0 !!  282
WARNING: pauli potential < 0 !!  282
WARNING: pauli potential < 0 !!  282
WARNING: pauli potential < 0 !!  282
WARNING: pauli potential < 0 !!  308
WARNING: pauli potential < 0 !!  201
WARNING: pauli potential < 0 !!  201
60    -4.767213803195e+01   4.651e-04   2.963e-02   -4.157e-03  
WARNING: pauli potential < 0 !!  202
WARNING: pauli potential < 0 !!  202
WARNING: pauli potential < 0 !!  201
WARNING: pauli potential < 0 !!  151
WARNING: pauli potential < 0 !!  112
WARNING: pauli potential < 0 !!  84
WARNING: pauli potential < 0 !!  115
WARNING: pauli potential < 0 !!  115
61    -4.767321877480e+01   2.932e-04   1.901e-02   -1.081e-03  
WARNING: pauli potential < 0 !!  115
WARNING: pauli potential < 0 !!  115
WARNING: pauli potential < 0 !!  115
WARNING: pauli potential < 0 !!  115
WARNING: pauli potential < 0 !!  147
WARNING: pauli potential < 0 !!  110
WARNING: pauli potential < 0 !!  110
62    -4.767359622997e+01   1.788e-04   1.538e-02   -3.775e-04  
WARNING: pauli potential < 0 !!  110
WARNING: pauli potential < 0 !!  111
WARNING: pauli potential < 0 !!  110
WARNING: pauli potential < 0 !!  201
WARNING: pauli potential < 0 !!  206
WARNING: pauli potential < 0 !!  206
63    -4.767381525803e+01   8.936e-05   1.278e-02   -2.190e-04  
WARNING: pauli potential < 0 !!  207
WARNING: pauli potential < 0 !!  207
WARNING: pauli potential < 0 !!  206
WARNING: pauli potential < 0 !!  106
WARNING: pauli potential < 0 !!  126
WARNING: pauli potential < 0 !!  126
64    -4.767389272951e+01   4.313e-05   1.145e-02   -7.747e-05  
WARNING: pauli potential < 0 !!  127
WARNING: pauli potential < 0 !!  127
WARNING: pauli potential < 0 !!  126
WARNING: pauli potential < 0 !!  112
WARNING: pauli potential < 0 !!  137
WARNING: pauli potential < 0 !!  161
WARNING: pauli potential < 0 !!  161
65    -4.767394468809e+01   4.271e-05   1.090e-02   -5.196e-05  
WARNING: pauli potential < 0 !!  161
WARNING: pauli potential < 0 !!  161
WARNING: pauli potential < 0 !!  161
WARNING: pauli potential < 0 !!  110
WARNING: pauli potential < 0 !!  197
WARNING: pauli potential < 0 !!  197
66    -4.767399384196e+01   3.939e-05   1.162e-02   -4.915e-05  
WARNING: pauli potential < 0 !!  197
WARNING: pauli potential < 0 !!  197
WARNING: pauli potential < 0 !!  197
WARNING: pauli potential < 0 !!  155
WARNING: pauli potential < 0 !!  192
WARNING: pauli potential < 0 !!  129
WARNING: pauli potential < 0 !!  129
67    -4.767404185099e+01   2.707e-05   8.678e-03   -4.801e-05  
WARNING: pauli potential < 0 !!  129
WARNING: pauli potential < 0 !!  129
WARNING: pauli potential < 0 !!  129
WARNING: pauli potential < 0 !!  103
WARNING: pauli potential < 0 !!  68
WARNING: pauli potential < 0 !!  197
WARNING: pauli potential < 0 !!  94
WARNING: pauli potential < 0 !!  94
68    -4.767406821238e+01   1.961e-05   8.543e-03   -2.636e-05  
WARNING: pauli potential < 0 !!  94
WARNING: pauli potential < 0 !!  94
WARNING: pauli potential < 0 !!  94
WARNING: pauli potential < 0 !!  94
WARNING: pauli potential < 0 !!  94
WARNING: pauli potential < 0 !!  93
WARNING: pauli potential < 0 !!  138
WARNING: pauli potential < 0 !!  223
WARNING: pauli potential < 0 !!  199
WARNING: pauli potential < 0 !!  199
69    -4.767421736139e+01   1.799e-04   1.436e-02   -1.491e-04  
WARNING: pauli potential < 0 !!  198
WARNING: pauli potential < 0 !!  199
WARNING: pauli potential < 0 !!  199
WARNING: pauli potential < 0 !!  175
WARNING: pauli potential < 0 !!  88
WARNING: pauli potential < 0 !!  258
WARNING: pauli potential < 0 !!  171
WARNING: pauli potential < 0 !!  171
70    -4.767427196625e+01   2.552e-05   1.004e-02   -5.460e-05  
WARNING: pauli potential < 0 !!  171
WARNING: pauli potential < 0 !!  171
WARNING: pauli potential < 0 !!  171
WARNING: pauli potential < 0 !!  137
WARNING: pauli potential < 0 !!  100
WARNING: pauli potential < 0 !!  100
71    -4.767430035070e+01   1.552e-05   7.604e-03   -2.838e-05  
WARNING: pauli potential < 0 !!  100
WARNING: pauli potential < 0 !!  100
WARNING: pauli potential < 0 !!  100
WARNING: pauli potential < 0 !!  100
WARNING: pauli potential < 0 !!  100
WARNING: pauli potential < 0 !!  137
WARNING: pauli potential < 0 !!  137
72    -4.767436651157e+01   7.759e-05   9.548e-03   -6.616e-05  
WARNING: pauli potential < 0 !!  137
WARNING: pauli potential < 0 !!  138
WARNING: pauli potential < 0 !!  137
WARNING: pauli potential < 0 !!  137
WARNING: pauli potential < 0 !!  127
WARNING: pauli potential < 0 !!  106
WARNING: pauli potential < 0 !!  152
WARNING: pauli potential < 0 !!  129
WARNING: pauli potential < 0 !!  129
73    -4.767440762415e+01   3.561e-05   8.458e-03   -4.111e-05  
WARNING: pauli potential < 0 !!  129
WARNING: pauli potential < 0 !!  129
WARNING: pauli potential < 0 !!  129
WARNING: pauli potential < 0 !!  129
WARNING: pauli potential < 0 !!  112
WARNING: pauli potential < 0 !!  83
WARNING: pauli potential < 0 !!  116
WARNING: pauli potential < 0 !!  116
74    -4.767443336326e+01   3.085e-05   8.202e-03   -2.574e-05  
WARNING: pauli potential < 0 !!  115
WARNING: pauli potential < 0 !!  117
WARNING: pauli potential < 0 !!  117
WARNING: pauli potential < 0 !!  116
WARNING: pauli potential < 0 !!  115
WARNING: pauli potential < 0 !!  127
WARNING: pauli potential < 0 !!  127
75    -4.767445537719e+01   2.353e-05   8.005e-03   -2.201e-05  
WARNING: pauli potential < 0 !!  127
WARNING: pauli potential < 0 !!  128
WARNING: pauli potential < 0 !!  127
WARNING: pauli potential < 0 !!  127
WARNING: pauli potential < 0 !!  127
WARNING: pauli potential < 0 !!  127
WARNING: pauli potential < 0 !!  127
WARNING: pauli potential < 0 !!  126
WARNING: pauli potential < 0 !!  121
WARNING: pauli potential < 0 !!  109
WARNING: pauli potential < 0 !!  207
WARNING: pauli potential < 0 !!  162
WARNING: pauli potential < 0 !!  162
76    -4.767489766976e+01   9.528e-04   1.616e-02   -4.423e-04  
WARNING: pauli potential < 0 !!  162
WARNING: pauli potential < 0 !!  162
WARNING: pauli potential < 0 !!  162
WARNING: pauli potential < 0 !!  162
WARNING: pauli potential < 0 !!  145
WARNING: pauli potential < 0 !!  213
WARNING: pauli potential < 0 !!  169
WARNING: pauli potential < 0 !!  169
77    -4.767513707129e+01   1.534e-04   1.132e-02   -2.394e-04  
WARNING: pauli potential < 0 !!  169
WARNING: pauli potential < 0 !!  169
WARNING: pauli potential < 0 !!  169
WARNING: pauli potential < 0 !!  142
WARNING: pauli potential < 0 !!  140
WARNING: pauli potential < 0 !!  278
WARNING: pauli potential < 0 !!  203
WARNING: pauli potential < 0 !!  203
78    -4.767519044437e+01   3.151e-05   1.148e-02   -5.337e-05  
WARNING: pauli potential < 0 !!  203
WARNING: pauli potential < 0 !!  203
WARNING: pauli potential < 0 !!  203
WARNING: pauli potential < 0 !!  173
WARNING: pauli potential < 0 !!  156
WARNING: pauli potential < 0 !!  156
79    -4.767522843295e+01   1.924e-05   8.563e-03   -3.799e-05  
WARNING: pauli potential < 0 !!  156
WARNING: pauli potential < 0 !!  156
WARNING: pauli potential < 0 !!  156
WARNING: pauli potential < 0 !!  156
WARNING: pauli potential < 0 !!  116
WARNING: pauli potential < 0 !!  142
WARNING: pauli potential < 0 !!  142
80    -4.767525987323e+01   3.029e-05   8.130e-03   -3.144e-05  
WARNING: pauli potential < 0 !!  140
WARNING: pauli potential < 0 !!  142
WARNING: pauli potential < 0 !!  142
WARNING: pauli potential < 0 !!  142
WARNING: pauli potential < 0 !!  132
WARNING: pauli potential < 0 !!  155
WARNING: pauli potential < 0 !!  155
81    -4.767528152650e+01   4.356e-05   8.474e-03   -2.165e-05  
WARNING: pauli potential < 0 !!  156
WARNING: pauli potential < 0 !!  156
WARNING: pauli potential < 0 !!  155
WARNING: pauli potential < 0 !!  132
WARNING: pauli potential < 0 !!  94
WARNING: pauli potential < 0 !!  172
WARNING: pauli potential < 0 !!  142
WARNING: pauli potential < 0 !!  142
82    -4.767530116427e+01   1.498e-05   8.388e-03   -1.964e-05  
WARNING: pauli potential < 0 !!  142
WARNING: pauli potential < 0 !!  142
WARNING: pauli potential < 0 !!  142
WARNING: pauli potential < 0 !!  120
WARNING: pauli potential < 0 !!  63
WARNING: pauli potential < 0 !!  103
WARNING: pauli potential < 0 !!  103
83    -4.767531422230e+01   1.114e-05   5.739e-03   -1.306e-05  
WARNING: pauli potential < 0 !!  102
WARNING: pauli potential < 0 !!  103
WARNING: pauli potential < 0 !!  103
WARNING: pauli potential < 0 !!  103
WARNING: pauli potential < 0 !!  103
WARNING: pauli potential < 0 !!  103
WARNING: pauli potential < 0 !!  103
WARNING: pauli potential < 0 !!  103
WARNING: pauli potential < 0 !!  103
WARNING: pauli potential < 0 !!  103
WARNING: pauli potential < 0 !!  108
WARNING: pauli potential < 0 !!  137
WARNING: pauli potential < 0 !!  223
WARNING: pauli potential < 0 !!  173
WARNING: pauli potential < 0 !!  173
84    -4.767553310761e+01   5.029e-04   1.478e-02   -2.189e-04  
WARNING: pauli potential < 0 !!  173
WARNING: pauli potential < 0 !!  173
WARNING: pauli potential < 0 !!  173
WARNING: pauli potential < 0 !!  173
WARNING: pauli potential < 0 !!  150
WARNING: pauli potential < 0 !!  214
WARNING: pauli potential < 0 !!  214
85    -4.767563604132e+01   5.182e-05   1.328e-02   -1.029e-04  
WARNING: pauli potential < 0 !!  214
WARNING: pauli potential < 0 !!  214
WARNING: pauli potential < 0 !!  214
WARNING: pauli potential < 0 !!  185
WARNING: pauli potential < 0 !!  106
WARNING: pauli potential < 0 !!  106
86    -4.767567639318e+01   1.648e-05   7.530e-03   -4.035e-05  
WARNING: pauli potential < 0 !!  106
WARNING: pauli potential < 0 !!  106
WARNING: pauli potential < 0 !!  106
WARNING: pauli potential < 0 !!  106
WARNING: pauli potential < 0 !!  106
WARNING: pauli potential < 0 !!  106
WARNING: pauli potential < 0 !!  91
WARNING: pauli potential < 0 !!  130
WARNING: pauli potential < 0 !!  130
87    -4.767571546533e+01   6.708e-05   8.019e-03   -3.907e-05  
WARNING: pauli potential < 0 !!  131
WARNING: pauli potential < 0 !!  130
WARNING: pauli potential < 0 !!  130
WARNING: pauli potential < 0 !!  130
WARNING: pauli potential < 0 !!  119
WARNING: pauli potential < 0 !!  135
WARNING: pauli potential < 0 !!  135
88    -4.767574175703e+01   3.061e-05   8.011e-03   -2.629e-05  
WARNING: pauli potential < 0 !!  134
WARNING: pauli potential < 0 !!  134
WARNING: pauli potential < 0 !!  135
WARNING: pauli potential < 0 !!  135
WARNING: pauli potential < 0 !!  135
WARNING: pauli potential < 0 !!  138
WARNING: pauli potential < 0 !!  138
89    -4.767575519545e+01   1.865e-05   8.178e-03   -1.344e-05  
WARNING: pauli potential < 0 !!  136
WARNING: pauli potential < 0 !!  137
WARNING: pauli potential < 0 !!  138
WARNING: pauli potential < 0 !!  138
WARNING: pauli potential < 0 !!  138
WARNING: pauli potential < 0 !!  143
WARNING: pauli potential < 0 !!  176
WARNING: pauli potential < 0 !!  176
90    -4.767577039049e+01   2.715e-05   9.414e-03   -1.520e-05  
WARNING: pauli potential < 0 !!  174
WARNING: pauli potential < 0 !!  176
WARNING: pauli potential < 0 !!  175
WARNING: pauli potential < 0 !!  176
WARNING: pauli potential < 0 !!  176
WARNING: pauli potential < 0 !!  176
WARNING: pauli potential < 0 !!  176
WARNING: pauli potential < 0 !!  165
WARNING: pauli potential < 0 !!  173
WARNING: pauli potential < 0 !!  252
WARNING: pauli potential < 0 !!  157
WARNING: pauli potential < 0 !!  157
91    -4.767580774785e+01   1.064e-04   1.066e-02   -3.736e-05  
WARNING: pauli potential < 0 !!  154
WARNING: pauli potential < 0 !!  157
WARNING: pauli potential < 0 !!  157
WARNING: pauli potential < 0 !!  140
WARNING: pauli potential < 0 !!  70
WARNING: pauli potential < 0 !!  141
WARNING: pauli potential < 0 !!  141
92    -4.767583303539e+01   1.833e-05   8.484e-03   -2.529e-05  
WARNING: pauli potential < 0 !!  141
WARNING: pauli potential < 0 !!  141
WARNING: pauli potential < 0 !!  141
WARNING: pauli potential < 0 !!  141
WARNING: pauli potential < 0 !!  141
WARNING: pauli potential < 0 !!  141
WARNING: pauli potential < 0 !!  124
WARNING: pauli potential < 0 !!  122
WARNING: pauli potential < 0 !!  122
93    -4.767585560440e+01   3.065e-05   7.881e-03   -2.257e-05  
WARNING: pauli potential < 0 !!  122
WARNING: pauli potential < 0 !!  122
WARNING: pauli potential < 0 !!  122
WARNING: pauli potential < 0 !!  118
WARNING: pauli potential < 0 !!  66
WARNING: pauli potential < 0 !!  83
WARNING: pauli potential < 0 !!  83
94    -4.767586678088e+01   1.004e-05   5.104e-03   -1.118e-05  
WARNING: pauli potential < 0 !!  83
WARNING: pauli potential < 0 !!  84
WARNING: pauli potential < 0 !!  83
WARNING: pauli potential < 0 !!  83
WARNING: pauli potential < 0 !!  84
WARNING: pauli potential < 0 !!  83
WARNING: pauli potential < 0 !!  84
WARNING: pauli potential < 0 !!  83
WARNING: pauli potential < 0 !!  83
WARNING: pauli potential < 0 !!  84
WARNING: pauli potential < 0 !!  83
WARNING: pauli potential < 0 !!  84
WARNING: pauli potential < 0 !!  83
WARNING: pauli potential < 0 !!  84
WARNING: pauli potential < 0 !!  83
WARNING: pauli potential < 0 !!  84
WARNING: pauli potential < 0 !!  83
WARNING: pauli potential < 0 !!  84
WARNING: pauli potential < 0 !!  84
WARNING: pauli potential < 0 !!  83
WARNING: pauli potential < 0 !!  84
WARNING: pauli potential < 0 !!  83
WARNING: pauli potential < 0 !!  84
WARNING: pauli potential < 0 !!  83
WARNING: pauli potential < 0 !!  84
WARNING: pauli potential < 0 !!  83
WARNING: pauli potential < 0 !!  83
WARNING: pauli potential < 0 !!  84
WARNING: pauli potential < 0 !!  83
WARNING: pauli potential < 0 !!  83
WARNING: pauli potential < 0 !!  83
WARNING: pauli potential < 0 !!  83
WARNING: pauli potential < 0 !!  84
WARNING: pauli potential < 0 !!  83
WARNING: pauli potential < 0 !!  83
WARNING: pauli potential < 0 !!  83
WARNING: pauli potential < 0 !!  83
WARNING: pauli potential < 0 !!  82
WARNING: pauli potential < 0 !!  73
WARNING: pauli potential < 0 !!  69
WARNING: pauli potential < 0 !!  87
WARNING: pauli potential < 0 !!  82
WARNING: pauli potential < 0 !!  82
95    -4.767764210757e+01   4.986e-03   6.321e-03   -1.775e-03  
WARNING: pauli potential < 0 !!  82
WARNING: pauli potential < 0 !!  83
WARNING: pauli potential < 0 !!  82
WARNING: pauli potential < 0 !!  82
WARNING: pauli potential < 0 !!  82
WARNING: pauli potential < 0 !!  96
WARNING: pauli potential < 0 !!  67
WARNING: pauli potential < 0 !!  67
96    -4.767764946156e+01   1.885e-05   4.661e-03   -7.354e-06  
WARNING: pauli potential < 0 !!  67
WARNING: pauli potential < 0 !!  68
WARNING: pauli potential < 0 !!  67
WARNING: pauli potential < 0 !!  67
WARNING: pauli potential < 0 !!  68
WARNING: pauli potential < 0 !!  67
WARNING: pauli potential < 0 !!  67
WARNING: pauli potential < 0 !!  67
WARNING: pauli potential < 0 !!  67
WARNING: pauli potential < 0 !!  67
WARNING: pauli potential < 0 !!  67
WARNING: pauli potential < 0 !!  67
WARNING: pauli potential < 0 !!  67
WARNING: pauli potential < 0 !!  67
WARNING: pauli potential < 0 !!  67
WARNING: pauli potential < 0 !!  67
WARNING: pauli potential < 0 !!  67
WARNING: pauli potential < 0 !!  67
WARNING: pauli potential < 0 !!  67
WARNING: pauli potential < 0 !!  67
WARNING: pauli potential < 0 !!  67
WARNING: pauli potential < 0 !!  67
WARNING: pauli potential < 0 !!  67
WARNING: pauli potential < 0 !!  67
WARNING: pauli potential < 0 !!  67
WARNING: pauli potential < 0 !!  67
WARNING: pauli potential < 0 !!  67
WARNING: pauli potential < 0 !!  67
WARNING: pauli potential < 0 !!  67
WARNING: pauli potential < 0 !!  67
WARNING: pauli potential < 0 !!  67
WARNING: pauli potential < 0 !!  67
WARNING: pauli potential < 0 !!  67
WARNING: pauli potential < 0 !!  67
WARNING: pauli potential < 0 !!  67
WARNING: pauli potential < 0 !!  67
WARNING: pauli potential < 0 !!  67
WARNING: pauli potential < 0 !!  67
WARNING: pauli potential < 0 !!  67
WARNING: pauli potential < 0 !!  75
WARNING: pauli potential < 0 !!  58
WARNING: pauli potential < 0 !!  63
WARNING: pauli potential < 0 !!  63
97    -4.767765551040e+01   3.941e-05   3.837e-03   -6.049e-06  
WARNING: pauli potential < 0 !!  63
WARNING: pauli potential < 0 !!  63
WARNING: pauli potential < 0 !!  63
WARNING: pauli potential < 0 !!  63
WARNING: pauli potential < 0 !!  63
WARNING: pauli potential < 0 !!  69
WARNING: pauli potential < 0 !!  86
WARNING: pauli potential < 0 !!  85
WARNING: pauli potential < 0 !!  85
98    -4.767766540904e+01   2.032e-05   5.280e-03   -9.899e-06  
WARNING: pauli potential < 0 !!  85
WARNING: pauli potential < 0 !!  85
WARNING: pauli potential < 0 !!  85
WARNING: pauli potential < 0 !!  85
WARNING: pauli potential < 0 !!  85
WARNING: pauli potential < 0 !!  85
WARNING: pauli potential < 0 !!  85
WARNING: pauli potential < 0 !!  85
WARNING: pauli potential < 0 !!  85
WARNING: pauli potential < 0 !!  85
WARNING: pauli potential < 0 !!  85
WARNING: pauli potential < 0 !!  85
WARNING: pauli potential < 0 !!  85
WARNING: pauli potential < 0 !!  85
WARNING: pauli potential < 0 !!  85
WARNING: pauli potential < 0 !!  85
WARNING: pauli potential < 0 !!  85
WARNING: pauli potential < 0 !!  85
WARNING: pauli potential < 0 !!  85
WARNING: pauli potential < 0 !!  85
WARNING: pauli potential < 0 !!  85
WARNING: pauli potential < 0 !!  85
WARNING: pauli potential < 0 !!  85
WARNING: pauli potential < 0 !!  85
WARNING: pauli potential < 0 !!  85
WARNING: pauli potential < 0 !!  77
WARNING: pauli potential < 0 !!  52
WARNING: pauli potential < 0 !!  71
WARNING: pauli potential < 0 !!  59
WARNING: pauli potential < 0 !!  59
99    -4.767767868077e+01   1.125e-04   2.914e-03   -1.327e-05  
WARNING: pauli potential < 0 !!  59
WARNING: pauli potential < 0 !!  58
WARNING: pauli potential < 0 !!  59
WARNING: pauli potential < 0 !!  59
WARNING: pauli potential < 0 !!  59
WARNING: pauli potential < 0 !!  59
WARNING: pauli potential < 0 !!  59
WARNING: pauli potential < 0 !!  59
WARNING: pauli potential < 0 !!  59
WARNING: pauli potential < 0 !!  58
WARNING: pauli potential < 0 !!  59
WARNING: pauli potential < 0 !!  58
WARNING: pauli potential < 0 !!  59
WARNING: pauli potential < 0 !!  59
WARNING: pauli potential < 0 !!  59
WARNING: pauli potential < 0 !!  59
WARNING: pauli potential < 0 !!  59
WARNING: pauli potential < 0 !!  58
WARNING: pauli potential < 0 !!  59
WARNING: pauli potential < 0 !!  58
WARNING: pauli potential < 0 !!  59
WARNING: pauli potential < 0 !!  59
WARNING: pauli potential < 0 !!  59
WARNING: pauli potential < 0 !!  59
WARNING: pauli potential < 0 !!  58
WARNING: pauli potential < 0 !!  59
WARNING: pauli potential < 0 !!  59
WARNING: pauli potential < 0 !!  58
WARNING: pauli potential < 0 !!  59
WARNING: pauli potential < 0 !!  59
WARNING: pauli potential < 0 !!  59
WARNING: pauli potential < 0 !!  59
WARNING: pauli potential < 0 !!  59
WARNING: pauli potential < 0 !!  59
WARNING: pauli potential < 0 !!  59
WARNING: pauli potential < 0 !!  59
WARNING: pauli potential < 0 !!  59
WARNING: pauli potential < 0 !!  59
WARNING: pauli potential < 0 !!  59
WARNING: pauli potential < 0 !!  59
WARNING: pauli potential < 0 !!  59
WARNING: pauli potential < 0 !!  59
WARNING: pauli potential < 0 !!  59
WARNING: pauli potential < 0 !!  59
WARNING: pauli potential < 0 !!  59
WARNING: pauli potential < 0 !!  59
WARNING: pauli potential < 0 !!  59
WARNING: pauli potential < 0 !!  59
WARNING: pauli potential < 0 !!  59
WARNING: pauli potential < 0 !!  59
WARNING: pauli potential < 0 !!  59
WARNING: pauli potential < 0 !!  59
WARNING: pauli potential < 0 !!  57
WARNING: pauli potential < 0 !!  51
WARNING: pauli potential < 0 !!  52
WARNING: pauli potential < 0 !!  52
100   -4.767768897107e+01   2.941e-04   5.527e-04   -1.029e-05  
WARNING: pauli potential < 0 !!  52
WARNING: pauli potential < 0 !!  52
WARNING: pauli potential < 0 !!  52
WARNING: pauli potential < 0 !!  52
WARNING: pauli potential < 0 !!  52
WARNING: pauli potential < 0 !!  52
WARNING: pauli potential < 0 !!  52
WARNING: pauli potential < 0 !!  52
WARNING: pauli potential < 0 !!  52
WARNING: pauli potential < 0 !!  52
WARNING: pauli potential < 0 !!  52
WARNING: pauli potential < 0 !!  52
WARNING: pauli potential < 0 !!  52
WARNING: pauli potential < 0 !!  52
WARNING: pauli potential < 0 !!  52
WARNING: pauli potential < 0 !!  52
WARNING: pauli potential < 0 !!  52
WARNING: pauli potential < 0 !!  52
WARNING: pauli potential < 0 !!  52
WARNING: pauli potential < 0 !!  51
WARNING: pauli potential < 0 !!  51
101   -4.767768932694e+01   1.504e-05   1.426e-04   -3.559e-07  
WARNING: pauli potential < 0 !!  51
WARNING: pauli potential < 0 !!  51
WARNING: pauli potential < 0 !!  51
WARNING: pauli potential < 0 !!  51
WARNING: pauli potential < 0 !!  51
WARNING: pauli potential < 0 !!  51
WARNING: pauli potential < 0 !!  51
WARNING: pauli potential < 0 !!  51
WARNING: pauli potential < 0 !!  51
WARNING: pauli potential < 0 !!  51
WARNING: pauli potential < 0 !!  51
WARNING: pauli potential < 0 !!  51
WARNING: pauli potential < 0 !!  51
WARNING: pauli potential < 0 !!  51
WARNING: pauli potential < 0 !!  51
WARNING: pauli potential < 0 !!  51
WARNING: pauli potential < 0 !!  51
WARNING: pauli potential < 0 !!  51
WARNING: pauli potential < 0 !!  51
WARNING: pauli potential < 0 !!  51
WARNING: pauli potential < 0 !!  51
WARNING: pauli potential < 0 !!  51
WARNING: pauli potential < 0 !!  51
WARNING: pauli potential < 0 !!  51
WARNING: pauli potential < 0 !!  51
WARNING: pauli potential < 0 !!  51
WARNING: pauli potential < 0 !!  51
WARNING: pauli potential < 0 !!  51
WARNING: pauli potential < 0 !!  51
WARNING: pauli potential < 0 !!  51
WARNING: pauli potential < 0 !!  51
WARNING: pauli potential < 0 !!  51
WARNING: pauli potential < 0 !!  51
WARNING: pauli potential < 0 !!  51
WARNING: pauli potential < 0 !!  51
WARNING: pauli potential < 0 !!  51
WARNING: pauli potential < 0 !!  51
WARNING: pauli potential < 0 !!  51
WARNING: pauli potential < 0 !!  52
WARNING: pauli potential < 0 !!  52
102   -4.767768952889e+01   3.464e-05   1.029e-04   -2.019e-07  
 ><><><><><><><><><><><><><><><><><><><><><><
 TOTAL-STRESS (KBAR):
 ><><><><><><><><><><><><><><><><><><><><><><
 -8.688e+02     -3.484e-01     -1.006e+00     
 -3.484e-01     -8.694e+02     1.029e-02      
 -1.006e+00     1.029e-02      -8.697e+02     
 TOTAL-PRESSURE: -8.693e+02 KBAR

  |CLASS_NAME---------|NAME---------------|TIME(Sec)-----|CALLS----|AVG------|PER%-------
                       total               23017          21        1.1e+03   1e+02     %
   Driver              driver_line         23017          1         2.3e+04   1e+02     %
   PW_Basis            setuptransform      1.6276         1         1.6       0.0071    %
   mymath              heapsort            0.25043        29255     8.6e-06   0.0011    %
   PW_Basis            setup_struc_factor  9.6169         1         9.6       0.042     %
   ppcell_vl           init_vloc           0.52386        1         0.52      0.0023    %
   Charge              atomic_rho          0.60473        1         0.6       0.0026    %
   PW_Basis            recip2real          748.39         19791     0.038     3.3       %
   PW_Basis            gathers_scatterp    61.035         19791     0.0031    0.27      %
   Potential           init_pot            2.9685         1         3         0.013     %
   Potential           update_from_charge  1015           990       1         4.4       %
   Potential           cal_v_eff           1014.9         990       1         4.4       %
   H_Hartree_pw        v_hartree           88.275         990       0.089     0.38      %
   PW_Basis            real2recip          732.47         19793     0.037     3.2       %
   PW_Basis            gatherp_scatters    40.235         19793     0.002     0.17      %
   PotXC               cal_v_eff           923.9          990       0.93      4         %
   XC_Functional       v_xc                11476          495       23        50        %
   XC_Functional       v_xc_libxc          921.5          990       0.93      4         %
   ESolver_OF          Run                 22970          1         2.3e+04   1e+02     %
   KEDF_vW             vw_potential        83.003         989       0.084     0.36      %
   Forces              cal_force_loc       9.5274         1         9.5       0.041     %
   Forces              cal_force_ew        9.2987         1         9.3       0.04      %
   OF_Stress_PW        cal_stress          12.256         1         12        0.053     %
   Stress_Func         stress_ewa          9.6711         1         9.7       0.042     %
   Stress_Func         stress_gga          1.5036         1         1.5       0.0065    %
   Stress_Func         stress_loc          1.0294         1         1         0.0045    %
 ----------------------------------------------------------------------------------------

 START  Time  : Thu Jan 11 22:41:48 2024
 FINISH Time  : Fri Jan 12 05:05:26 2024
 TOTAL  Time  : 2.3e+04
 SEE INFORMATION IN : OUT.oftest/
