 *********************************************************
 *                                                       *
 *                  WELCOME TO ABACUS v3.0               *
 *                                                       *
 *            'Atomic-orbital Based Ab-initio            *
 *                  Computation at UStc'                 *
 *                                                       *
 *          Website: http://abacus.ustc.edu.cn/          *
 *                                                       *
 *********************************************************
 Tue May  2 23:18:21 2023
 MAKE THE DIR         : OUT.oftest/
Notice: symbol 'al_locpsp' is not an element symbol!!!! set the covalent radius to be 0.
 UNIFORM GRID DIM     : 27 * 27 * 45
 UNIFORM GRID DIM(BIG): 27 * 27 * 45
func,idXC_GGA_X_PBE 101
func,idXC_GGA_C_PBE 130
 DONE(0.152475   SEC) : SETUP UNITCELL
 DONE(0.207205   SEC) : SYMMETRY
 DONE(0.207465   SEC) : INIT K-POINTS
 ---------------------------------------------------------
 Self-consistent calculations for electrons
 ---------------------------------------------------------
 SPIN    KPOINTS         PROCESSORS  
 1       1               1           
 ---------------------------------------------------------
 Use plane wave basis
 ---------------------------------------------------------
 ELEMENT NATOM       XC          
 Al      2           
 ---------------------------------------------------------
 Initial plane wave basis and FFT box
 ---------------------------------------------------------
 DONE(0.211673   SEC) : INIT BASIS
 DONE(0.211699   SEC) : INIT PHI
 DONE(0.407402   SEC) : LOCAL POTENTIAL
 DONE(0.407442   SEC) : NON-LOCAL POTENTIAL
 START CHARGE      : atomic
 DONE(0.65657    SEC) : INIT POTENTIAL
 DONE(0.656715   SEC) : INIT OPTIMIZATION
Default type: double
nnode = 10
nlayer = 3
feg_net_F = 0.540933
 DONE(0.708732   SEC) : INIT KEDF
======================== Running OFDFT ========================
Iter        Etot(Ha)          Theta      PotNorm     deltaE(Ha)
0     -4.035353238199e+00   2.000e-01   2.125e-01   -4.035e+00  
1     -4.065195316759e+00   4.431e-02   2.602e-01   -2.984e-02  
2     -4.067587347606e+00   1.038e-02   2.738e-01   -2.392e-03  
3     -4.076236754245e+00   1.794e-02   2.988e-01   -8.649e-03  
4     -4.118023978137e+00   3.538e-02   3.712e-01   -4.179e-02  
5     -4.199621942323e+00   4.898e-02   4.109e-02   -8.160e-02  
6     -4.199878885268e+00   1.874e-03   3.331e-03   -2.569e-04  
7     -4.199884215736e+00   4.591e-04   2.545e-03   -5.330e-06  
8     -4.199886770325e+00   3.566e-04   1.313e-03   -2.555e-06  
9     -4.199887388166e+00   1.382e-04   5.385e-04   -6.178e-07  
10    -4.199887638355e+00   1.720e-04   4.226e-05   -2.502e-07  

  |CLASS_NAME---------|NAME---------------|TIME(Sec)-----|CALLS----|AVG------|PER%-------
                       total               285.69         21        14        1e+02     %
   Driver              driver_line         285.68         1         2.9e+02   1e+02     %
   PW_Basis            setuptransform      0.12443        1         0.12      0.044     %
   ppcell_vl           init_vloc           0.19557        1         0.2       0.068     %
   Charge              atomic_rho          0.19783        1         0.2       0.069     %
   PW_Basis            recip2real          6.752          5288      0.0013    2.4       %
   PW_Basis            gathers_scatterp    0.49207        5288      9.3e-05   0.17      %
   Potential           update_from_charge  9.5891         265       0.036     3.4       %
   Potential           cal_v_eff           9.5863         265       0.036     3.4       %
   H_Hartree_pw        v_hartree           0.76351        265       0.0029    0.27      %
   PW_Basis            real2recip          6.6338         5288      0.0013    2.3       %
   PW_Basis            gatherp_scatters    0.29602        5288      5.6e-05   0.1       %
   PotXC               cal_v_eff           8.7979         265       0.033     3.1       %
   XC_Functional       v_xc                141.61         133       1.1       50        %
   XC_Functional       v_xc_libxc          8.7843         265       0.033     3.1       %
   ESolver_OF          Run                 284.98         1         2.8e+02   1e+02     %
   KEDF_vW             vw_potential        0.76225        264       0.0029    0.27      %
 ----------------------------------------------------------------------------------------

 START  Time  : Tue May  2 23:18:21 2023
 FINISH Time  : Tue May  2 23:23:07 2023
 TOTAL  Time  : 2.9e+02
 SEE INFORMATION IN : OUT.oftest/
